<?xml version="1.0" encoding="UTF-8"?>

<!-- generated on 2025-11-09 15:31:02 by Eclipse SUMO GUI Version 1.24.0
<sumoConfiguration xmlns:xsi="http://www.w3.org/2001/XMLSchema-instance" xsi:noNamespaceSchemaLocation="http://sumo.dlr.de/xsd/sumoConfiguration.xsd">

    <input>
        <net-file value="D:\Projects\Smart India Hackathon\Pathsync v3\2025-11-09-15-16-17\osm.net.xml.gz"/>
        <route-files value="D:\Projects\Smart India Hackathon\Pathsync v3\2025-11-09-15-16-17\osm.passenger.trips.xml"/>
        <additional-files value="D:\Projects\Smart India Hackathon\Pathsync v3\2025-11-09-15-16-17\osm.poly.xml.gz,D:\Projects\Smart India Hackathon\Pathsync v3\2025-11-09-15-16-17\output.add.xml"/>
    </input>

    <output>
        <tripinfo-output value="D:\Projects\Smart India Hackathon\Pathsync v3\2025-11-09-15-16-17\tripinfos.xml"/>
        <statistic-output value="D:\Projects\Smart India Hackathon\Pathsync v3\2025-11-09-15-16-17\stats.xml"/>
    </output>

    <processing>
        <ignore-route-errors value="true"/>
        <tls.actuated.jam-threshold value="30"/>
    </processing>

    <routing>
        <device.rerouting.adaptation-steps value="18"/>
        <device.rerouting.adaptation-interval value="10"/>
    </routing>

    <report>
        <verbose value="true"/>
        <duration-log.statistics value="true"/>
        <no-step-log value="true"/>
    </report>

    <gui_only>
        <gui-settings-file value="D:\Projects\Smart India Hackathon\Pathsync v3\2025-11-09-15-16-17\osm.view.xml"/>
    </gui_only>

</sumoConfiguration>
-->

<meandata xmlns:xsi="http://www.w3.org/2001/XMLSchema-instance" xsi:noNamespaceSchemaLocation="http://sumo.dlr.de/xsd/meandata_file.xsd">
    <interval begin="0.00" end="665.00" id="wizard_example">
        <edge id="-1010638516" sampledSeconds="0.00" departed="0" arrived="0" entered="0" left="0" laneChangedFrom="0" laneChangedTo="0"/>
        <edge id="-102413343#0" sampledSeconds="8.27" traveltime="3.19" overlapTraveltime="4.14" density="0.31" laneDensity="0.31" occupancy="0.13" waitingTime="0.00" timeLoss="1.86" speed="10.98" speedRelative="0.79" departed="0" arrived="1" entered="2" left="1" laneChangedFrom="0" laneChangedTo="0"/>
        <edge id="-102413343#1" sampledSeconds="29.65" traveltime="14.69" overlapTraveltime="15.02" density="0.24" laneDensity="0.24" occupancy="0.12" waitingTime="0.00" timeLoss="4.96" speed="12.81" speedRelative="0.92" departed="1" arrived="0" entered="1" left="2" laneChangedFrom="0" laneChangedTo="0"/>
        <edge id="-1042958048#0" sampledSeconds="7.68" traveltime="4.35" overlapTraveltime="5.03" density="0.70" laneDensity="0.70" occupancy="0.31" waitingTime="0.00" timeLoss="4.07" speed="4.28" speedRelative="0.31" departed="2" arrived="0" entered="0" left="2" laneChangedFrom="0" laneChangedTo="0"/>
        <edge id="-1042958048#1" sampledSeconds="22.94" traveltime="10.55" overlapTraveltime="11.76" density="0.35" laneDensity="0.35" occupancy="0.16" waitingTime="0.00" timeLoss="6.68" speed="8.92" speedRelative="0.64" departed="1" arrived="0" entered="1" left="2" laneChangedFrom="0" laneChangedTo="0"/>
        <edge id="-1042958049" sampledSeconds="80.22" traveltime="19.97" overlapTraveltime="20.95" density="1.05" laneDensity="1.05" occupancy="0.51" waitingTime="41.00" timeLoss="47.68" speed="5.70" speedRelative="0.41" departed="4" arrived="0" entered="0" left="4" laneChangedFrom="0" laneChangedTo="0"/>
        <edge id="-1042959303" sampledSeconds="35.73" traveltime="11.92" overlapTraveltime="12.52" density="0.54" laneDensity="0.54" occupancy="0.26" waitingTime="0.00" timeLoss="12.22" speed="8.33" speedRelative="0.60" departed="3" arrived="0" entered="0" left="3" laneChangedFrom="0" laneChangedTo="0"/>
        <edge id="-1042959305#0" sampledSeconds="14.20" traveltime="4.52" overlapTraveltime="5.22" density="0.75" laneDensity="0.75" occupancy="0.33" waitingTime="0.00" timeLoss="6.47" speed="6.41" speedRelative="0.46" departed="1" arrived="1" entered="2" left="2" laneChangedFrom="0" laneChangedTo="0"/>
        <edge id="-1042959305#1" sampledSeconds="0.00" departed="0" arrived="0" entered="0" left="0" laneChangedFrom="0" laneChangedTo="0"/>
        <edge id="-1042959306" sampledSeconds="9.08" traveltime="9.15" overlapTraveltime="9.78" density="0.21" laneDensity="0.21" occupancy="0.10" waitingTime="0.00" timeLoss="4.10" speed="7.28" speedRelative="0.52" departed="1" arrived="0" entered="0" left="1" laneChangedFrom="0" laneChangedTo="0"/>
        <edge id="-1042959307" sampledSeconds="8.02" traveltime="3.85" overlapTraveltime="4.55" density="0.32" laneDensity="0.32" occupancy="0.15" waitingTime="0.00" timeLoss="2.59" speed="9.46" speedRelative="0.68" departed="2" arrived="0" entered="0" left="2" laneChangedFrom="0" laneChangedTo="0"/>
        <edge id="-1042959308" sampledSeconds="2.82" traveltime="3.45" overlapTraveltime="4.10" density="0.37" laneDensity="0.37" occupancy="0.16" waitingTime="0.00" timeLoss="2.06" speed="3.99" speedRelative="0.29" departed="1" arrived="0" entered="0" left="1" laneChangedFrom="0" laneChangedTo="0"/>
        <edge id="-1042959683#0" sampledSeconds="0.00" departed="0" arrived="0" entered="0" left="0" laneChangedFrom="0" laneChangedTo="0"/>
        <edge id="-1042959684" sampledSeconds="0.00" departed="0" arrived="0" entered="0" left="0" laneChangedFrom="0" laneChangedTo="0"/>
        <edge id="-1042959685#0" sampledSeconds="0.00" departed="0" arrived="0" entered="0" left="0" laneChangedFrom="0" laneChangedTo="0"/>
        <edge id="-1042959686" sampledSeconds="0.00" departed="0" arrived="0" entered="0" left="0" laneChangedFrom="0" laneChangedTo="0"/>
        <edge id="-1042959687#0" sampledSeconds="0.00" departed="0" arrived="0" entered="0" left="0" laneChangedFrom="0" laneChangedTo="0"/>
        <edge id="-1042959687#1" sampledSeconds="0.00" departed="0" arrived="0" entered="0" left="0" laneChangedFrom="0" laneChangedTo="0"/>
        <edge id="-1042959688" sampledSeconds="64.99" traveltime="6.20" overlapTraveltime="7.22" density="1.89" laneDensity="1.89" occupancy="0.83" waitingTime="0.00" timeLoss="20.44" speed="7.86" speedRelative="0.57" departed="0" arrived="0" entered="9" left="9" laneChangedFrom="0" laneChangedTo="0"/>
        <edge id="-1042961554" sampledSeconds="33.59" traveltime="10.58" overlapTraveltime="11.37" density="0.47" laneDensity="0.47" occupancy="0.22" waitingTime="0.00" timeLoss="8.37" speed="9.93" speedRelative="0.72" departed="1" arrived="0" entered="2" left="3" laneChangedFrom="0" laneChangedTo="0"/>
        <edge id="-1042961557" sampledSeconds="10.01" traveltime="9.93" overlapTraveltime="10.63" density="0.18" laneDensity="0.18" occupancy="0.09" waitingTime="0.00" timeLoss="3.21" speed="8.30" speedRelative="0.60" departed="1" arrived="0" entered="0" left="1" laneChangedFrom="0" laneChangedTo="0"/>
        <edge id="-1042961559" sampledSeconds="24.01" traveltime="11.86" overlapTraveltime="12.61" density="0.36" laneDensity="0.36" occupancy="0.17" waitingTime="0.00" timeLoss="9.05" speed="8.43" speedRelative="0.61" departed="2" arrived="0" entered="0" left="2" laneChangedFrom="0" laneChangedTo="0"/>
        <edge id="-1042961560" sampledSeconds="27.34" traveltime="8.52" overlapTraveltime="9.11" density="0.41" laneDensity="0.41" occupancy="0.19" waitingTime="0.00" timeLoss="5.12" speed="11.66" speedRelative="0.84" departed="0" arrived="1" entered="3" left="2" laneChangedFrom="0" laneChangedTo="0"/>
        <edge id="-1042961561" sampledSeconds="4.28" traveltime="3.92" overlapTraveltime="4.89" density="0.18" laneDensity="0.18" occupancy="0.08" waitingTime="0.00" timeLoss="1.08" speed="8.47" speedRelative="0.61" departed="1" arrived="0" entered="0" left="1" laneChangedFrom="0" laneChangedTo="0"/>
        <edge id="-1042961562" sampledSeconds="11.23" traveltime="10.43" overlapTraveltime="12.68" density="0.43" laneDensity="0.43" occupancy="0.20" waitingTime="1.00" timeLoss="8.46" speed="3.52" speedRelative="0.25" departed="1" arrived="0" entered="0" left="1" laneChangedFrom="0" laneChangedTo="0"/>
        <edge id="-1042961563" sampledSeconds="12.94" traveltime="3.24" overlapTraveltime="4.67" density="1.12" laneDensity="1.12" occupancy="0.45" waitingTime="0.00" timeLoss="5.58" speed="4.78" speedRelative="0.34" departed="1" arrived="0" entered="2" left="3" laneChangedFrom="0" laneChangedTo="0"/>
        <edge id="-1043443171" sampledSeconds="536.67" traveltime="47.89" overlapTraveltime="58.81" density="1.81" laneDensity="1.81" occupancy="0.88" waitingTime="163.00" timeLoss="219.76" speed="7.67" speedRelative="0.55" departed="0" arrived="0" entered="10" left="9" laneChangedFrom="0" laneChangedTo="0"/>
        <edge id="-1043443173#0" sampledSeconds="2.80" traveltime="1.89" overlapTraveltime="2.80" density="0.38" laneDensity="0.38" occupancy="0.14" waitingTime="0.00" timeLoss="1.28" speed="5.71" speedRelative="0.41" departed="0" arrived="0" entered="1" left="1" laneChangedFrom="0" laneChangedTo="0"/>
        <edge id="-1043443173#1" sampledSeconds="4.08" traveltime="4.65" overlapTraveltime="5.15" density="0.31" laneDensity="0.31" occupancy="0.15" waitingTime="0.00" timeLoss="2.70" speed="4.76" speedRelative="0.34" departed="1" arrived="0" entered="0" left="1" laneChangedFrom="0" laneChangedTo="0"/>
        <edge id="-1043443173#2" sampledSeconds="0.00" departed="0" arrived="0" entered="0" left="0" laneChangedFrom="0" laneChangedTo="0"/>
        <edge id="-1046715711" sampledSeconds="30.17" traveltime="3.32" overlapTraveltime="4.31" density="1.62" laneDensity="1.62" occupancy="0.67" waitingTime="0.00" timeLoss="8.57" speed="7.66" speedRelative="0.55" departed="0" arrived="0" entered="7" left="7" laneChangedFrom="0" laneChangedTo="0"/>
        <edge id="-1046715712" sampledSeconds="3.24" traveltime="3.89" overlapTraveltime="4.47" density="0.36" laneDensity="0.36" occupancy="0.16" waitingTime="0.00" timeLoss="1.92" speed="4.14" speedRelative="0.30" departed="1" arrived="0" entered="0" left="1" laneChangedFrom="0" laneChangedTo="0"/>
        <edge id="-1046715720" sampledSeconds="26.85" traveltime="6.49" overlapTraveltime="7.34" density="1.01" laneDensity="1.01" occupancy="0.47" waitingTime="0.00" timeLoss="12.38" speed="6.15" speedRelative="0.44" departed="3" arrived="0" entered="1" left="4" laneChangedFrom="0" laneChangedTo="0"/>
        <edge id="-1046715721" sampledSeconds="17.47" traveltime="6.19" overlapTraveltime="9.27" density="0.68" laneDensity="0.68" occupancy="0.27" waitingTime="0.00" timeLoss="8.19" speed="4.73" speedRelative="0.34" departed="1" arrived="0" entered="1" left="2" laneChangedFrom="0" laneChangedTo="0"/>
        <edge id="-1059854100" sampledSeconds="9.72" traveltime="7.82" overlapTraveltime="9.72" density="0.39" laneDensity="0.39" occupancy="0.17" waitingTime="1.00" timeLoss="6.19" speed="4.40" speedRelative="0.32" departed="0" arrived="0" entered="1" left="1" laneChangedFrom="0" laneChangedTo="0"/>
        <edge id="-1059854101#0" sampledSeconds="39.63" traveltime="5.90" overlapTraveltime="6.60" density="0.99" laneDensity="0.99" occupancy="0.44" waitingTime="0.00" timeLoss="9.50" speed="9.92" speedRelative="0.71" departed="0" arrived="0" entered="6" left="6" laneChangedFrom="0" laneChangedTo="0"/>
        <edge id="-1059854101#1" sampledSeconds="244.28" traveltime="70.80" overlapTraveltime="74.86" density="45.18" laneDensity="45.18" occupancy="14.20" waitingTime="236.00" timeLoss="241.18" speed="0.18" speedRelative="0.01" departed="1" arrived="0" entered="4" left="3" laneChangedFrom="0" laneChangedTo="0"/>
        <edge id="-1059854102#0" sampledSeconds="60.41" traveltime="10.42" overlapTraveltime="20.14" density="1.43" laneDensity="1.43" occupancy="0.59" waitingTime="35.00" timeLoss="46.09" speed="3.40" speedRelative="0.24" departed="0" arrived="0" entered="3" left="3" laneChangedFrom="0" laneChangedTo="0"/>
        <edge id="-1059854102#1" sampledSeconds="5.31" traveltime="0.67" overlapTraveltime="1.52" density="1.60" laneDensity="1.60" occupancy="0.42" waitingTime="0.00" timeLoss="2.27" speed="6.59" speedRelative="0.47" departed="1" arrived="0" entered="3" left="4" laneChangedFrom="0" laneChangedTo="0"/>
        <edge id="-1059854103#0" sampledSeconds="438.75" traveltime="148.46" overlapTraveltime="150.08" density="10.70" laneDensity="10.70" occupancy="5.31" waitingTime="403.00" timeLoss="423.72" speed="0.44" speedRelative="0.03" departed="1" arrived="0" entered="2" left="3" laneChangedFrom="0" laneChangedTo="0"/>
        <edge id="-1059854103#1" sampledSeconds="3.37" traveltime="0.93" overlapTraveltime="2.24" density="0.95" laneDensity="0.95" occupancy="0.27" waitingTime="0.00" timeLoss="1.50" speed="4.62" speedRelative="0.33" departed="1" arrived="0" entered="1" left="2" laneChangedFrom="0" laneChangedTo="0"/>
        <edge id="-1059854104" sampledSeconds="5.52" traveltime="4.71" overlapTraveltime="5.52" density="0.21" laneDensity="0.21" occupancy="0.09" waitingTime="0.00" timeLoss="1.45" speed="8.14" speedRelative="0.59" departed="0" arrived="0" entered="1" left="1" laneChangedFrom="0" laneChangedTo="0"/>
        <edge id="-1059854105#0" sampledSeconds="4.43" traveltime="4.24" overlapTraveltime="4.59" density="0.12" laneDensity="0.12" occupancy="0.06" waitingTime="0.00" timeLoss="0.88" speed="12.79" speedRelative="0.92" departed="0" arrived="1" entered="1" left="0" laneChangedFrom="0" laneChangedTo="0"/>
        <edge id="-1059854105#1" sampledSeconds="5.89" traveltime="2.94" overlapTraveltime="3.75" density="0.55" laneDensity="0.55" occupancy="0.24" waitingTime="0.00" timeLoss="3.57" speed="5.67" speedRelative="0.41" departed="1" arrived="1" entered="1" left="1" laneChangedFrom="0" laneChangedTo="0"/>
        <edge id="-1059854105#2" sampledSeconds="5.80" traveltime="1.30" overlapTraveltime="1.93" density="1.07" laneDensity="1.07" occupancy="0.32" waitingTime="0.00" timeLoss="1.94" speed="6.81" speedRelative="0.49" departed="0" arrived="0" entered="3" left="3" laneChangedFrom="0" laneChangedTo="0"/>
        <edge id="-1059854106" sampledSeconds="2.77" traveltime="3.49" overlapTraveltime="3.95" density="0.35" laneDensity="0.35" occupancy="0.15" waitingTime="0.00" timeLoss="2.10" speed="4.31" speedRelative="0.31" departed="1" arrived="0" entered="0" left="1" laneChangedFrom="0" laneChangedTo="0"/>
        <edge id="-1059854107" sampledSeconds="0.00" departed="0" arrived="0" entered="0" left="0" laneChangedFrom="0" laneChangedTo="0"/>
        <edge id="-1059854108#0" sampledSeconds="6.78" traveltime="3.83" overlapTraveltime="4.58" density="0.70" laneDensity="0.70" occupancy="0.30" waitingTime="0.00" timeLoss="3.14" speed="4.27" speedRelative="0.31" departed="2" arrived="0" entered="0" left="2" laneChangedFrom="0" laneChangedTo="0"/>
        <edge id="-1059854108#1" sampledSeconds="4.77" traveltime="1.86" overlapTraveltime="2.56" density="0.50" laneDensity="0.50" occupancy="0.19" waitingTime="0.00" timeLoss="1.88" speed="7.59" speedRelative="0.55" departed="0" arrived="1" entered="2" left="1" laneChangedFrom="0" laneChangedTo="0"/>
        <edge id="-1059854108#2" sampledSeconds="3.41" traveltime="2.59" overlapTraveltime="3.41" density="0.20" laneDensity="0.20" occupancy="0.08" waitingTime="0.00" timeLoss="0.66" speed="9.05" speedRelative="0.65" departed="0" arrived="0" entered="1" left="1" laneChangedFrom="0" laneChangedTo="0"/>
        <edge id="-1059854109" sampledSeconds="13.91" traveltime="13.73" overlapTraveltime="14.54" density="0.19" laneDensity="0.19" occupancy="0.09" waitingTime="0.00" timeLoss="5.48" speed="8.07" speedRelative="0.58" departed="1" arrived="0" entered="0" left="1" laneChangedFrom="0" laneChangedTo="0"/>
        <edge id="-1059854110" sampledSeconds="11.17" traveltime="2.92" overlapTraveltime="3.72" density="0.67" laneDensity="0.67" occupancy="0.28" waitingTime="0.00" timeLoss="3.48" speed="8.12" speedRelative="0.58" departed="0" arrived="0" entered="3" left="3" laneChangedFrom="0" laneChangedTo="0"/>
        <edge id="-1059854111" sampledSeconds="11.91" traveltime="2.24" overlapTraveltime="2.98" density="1.17" laneDensity="1.17" occupancy="0.45" waitingTime="0.00" timeLoss="5.09" speed="6.79" speedRelative="0.49" departed="0" arrived="1" entered="4" left="3" laneChangedFrom="0" laneChangedTo="0"/>
        <edge id="-1059854112" sampledSeconds="6.46" traveltime="5.57" overlapTraveltime="6.46" density="0.22" laneDensity="0.22" occupancy="0.10" waitingTime="0.00" timeLoss="3.05" speed="7.48" speedRelative="0.54" departed="0" arrived="0" entered="1" left="1" laneChangedFrom="0" laneChangedTo="0"/>
        <edge id="-1059854119" sampledSeconds="0.00" departed="0" arrived="0" entered="0" left="0" laneChangedFrom="0" laneChangedTo="0"/>
        <edge id="-1059854120#0" sampledSeconds="0.00" departed="0" arrived="0" entered="0" left="0" laneChangedFrom="0" laneChangedTo="0"/>
        <edge id="-1059854120#1" sampledSeconds="1.64" traveltime="0.81" overlapTraveltime="1.64" density="0.51" laneDensity="0.51" occupancy="0.12" waitingTime="0.00" timeLoss="0.20" speed="6.03" speedRelative="0.43" departed="0" arrived="0" entered="1" left="1" laneChangedFrom="0" laneChangedTo="0"/>
        <edge id="-1059854120#2" sampledSeconds="0.00" departed="0" arrived="0" entered="0" left="0" laneChangedFrom="0" laneChangedTo="0"/>
        <edge id="-1059854121#0" sampledSeconds="229.66" traveltime="77.67" overlapTraveltime="78.58" density="5.66" laneDensity="5.66" occupancy="2.81" waitingTime="206.00" timeLoss="217.20" speed="0.84" speedRelative="0.06" departed="1" arrived="0" entered="2" left="3" laneChangedFrom="0" laneChangedTo="0"/>
        <edge id="-1059854121#1" sampledSeconds="1.90" traveltime="1.58" overlapTraveltime="1.90" density="0.13" laneDensity="0.13" occupancy="0.05" waitingTime="0.00" timeLoss="0.33" speed="14.38" speedRelative="1.04" departed="0" arrived="0" entered="1" left="1" laneChangedFrom="0" laneChangedTo="0"/>
        <edge id="-1059854122" sampledSeconds="114.26" traveltime="62.16" overlapTraveltime="64.36" density="2.56" laneDensity="2.56" occupancy="1.28" waitingTime="100.00" timeLoss="105.14" speed="1.12" speedRelative="0.08" departed="2" arrived="0" entered="0" left="1" laneChangedFrom="0" laneChangedTo="0"/>
        <edge id="-1059854123" sampledSeconds="303.33" traveltime="79.67" overlapTraveltime="84.96" density="12.60" laneDensity="12.60" occupancy="6.26" waitingTime="284.00" timeLoss="292.87" speed="0.48" speedRelative="0.03" departed="0" arrived="0" entered="4" left="2" laneChangedFrom="0" laneChangedTo="0"/>
        <edge id="-1059854135" sampledSeconds="87.48" traveltime="39.18" overlapTraveltime="41.12" density="0.70" laneDensity="0.70" occupancy="0.34" waitingTime="46.00" timeLoss="60.14" speed="4.67" speedRelative="0.34" departed="1" arrived="0" entered="2" left="2" laneChangedFrom="0" laneChangedTo="0"/>
        <edge id="-1059854136" sampledSeconds="162.00" traveltime="167.21" overlapTraveltime="172.23" density="1.46" laneDensity="1.46" occupancy="0.73" waitingTime="144.00" timeLoss="149.78" speed="1.00" speedRelative="0.07" departed="1" arrived="0" entered="0" left="0" laneChangedFrom="0" laneChangedTo="0"/>
        <edge id="-1063788043" sampledSeconds="9.48" traveltime="4.00" overlapTraveltime="4.74" density="0.49" laneDensity="0.49" occupancy="0.21" waitingTime="0.00" timeLoss="4.45" speed="7.22" speedRelative="0.52" departed="0" arrived="0" entered="2" left="2" laneChangedFrom="0" laneChangedTo="0"/>
        <edge id="-1066105228#0" sampledSeconds="0.00" departed="0" arrived="0" entered="0" left="0" laneChangedFrom="0" laneChangedTo="0"/>
        <edge id="-1066105228#1" sampledSeconds="0.00" departed="0" arrived="0" entered="0" left="0" laneChangedFrom="0" laneChangedTo="0"/>
        <edge id="-1066105228#2" sampledSeconds="0.00" departed="0" arrived="0" entered="0" left="0" laneChangedFrom="0" laneChangedTo="0"/>
        <edge id="-1066105229" sampledSeconds="0.00" departed="0" arrived="0" entered="0" left="0" laneChangedFrom="0" laneChangedTo="0"/>
        <edge id="-1066105232#0" sampledSeconds="0.00" departed="0" arrived="0" entered="0" left="0" laneChangedFrom="0" laneChangedTo="0"/>
        <edge id="-1066105233#0" sampledSeconds="0.00" departed="0" arrived="0" entered="0" left="0" laneChangedFrom="0" laneChangedTo="0"/>
        <edge id="-1066105233#1" sampledSeconds="0.00" departed="0" arrived="0" entered="0" left="0" laneChangedFrom="0" laneChangedTo="0"/>
        <edge id="-1066105234" sampledSeconds="0.00" departed="0" arrived="0" entered="0" left="0" laneChangedFrom="0" laneChangedTo="0"/>
        <edge id="-1072863674#0" sampledSeconds="0.00" departed="0" arrived="0" entered="0" left="0" laneChangedFrom="0" laneChangedTo="0"/>
        <edge id="-1072863674#1" sampledSeconds="0.00" departed="0" arrived="0" entered="0" left="0" laneChangedFrom="0" laneChangedTo="0"/>
        <edge id="-1072863675" sampledSeconds="0.00" departed="0" arrived="0" entered="0" left="0" laneChangedFrom="0" laneChangedTo="0"/>
        <edge id="-1074465808" sampledSeconds="9.14" traveltime="4.25" overlapTraveltime="4.57" density="0.28" laneDensity="0.28" occupancy="0.12" waitingTime="0.00" timeLoss="2.42" speed="11.96" speedRelative="0.86" departed="0" arrived="0" entered="2" left="2" laneChangedFrom="0" laneChangedTo="0"/>
        <edge id="-1075652202" sampledSeconds="0.00" departed="0" arrived="0" entered="0" left="0" laneChangedFrom="0" laneChangedTo="0"/>
        <edge id="-1081152633" sampledSeconds="26.58" traveltime="8.49" overlapTraveltime="9.01" density="0.41" laneDensity="0.41" occupancy="0.19" waitingTime="0.00" timeLoss="5.17" speed="11.37" speedRelative="0.82" departed="1" arrived="0" entered="2" left="3" laneChangedFrom="0" laneChangedTo="0"/>
        <edge id="-1081152634#0" sampledSeconds="24.88" traveltime="12.23" overlapTraveltime="13.06" density="0.36" laneDensity="0.36" occupancy="0.18" waitingTime="0.00" timeLoss="7.38" speed="8.26" speedRelative="0.59" departed="2" arrived="0" entered="0" left="2" laneChangedFrom="0" laneChangedTo="0"/>
        <edge id="-1081152634#1" sampledSeconds="12.48" traveltime="12.15" overlapTraveltime="13.13" density="0.19" laneDensity="0.19" occupancy="0.09" waitingTime="0.00" timeLoss="4.40" speed="7.79" speedRelative="0.56" departed="1" arrived="0" entered="0" left="1" laneChangedFrom="0" laneChangedTo="0"/>
        <edge id="-1081152634#2" sampledSeconds="0.00" departed="0" arrived="0" entered="0" left="0" laneChangedFrom="0" laneChangedTo="0"/>
        <edge id="-1081152634#3" sampledSeconds="14.68" traveltime="12.13" overlapTraveltime="12.84" density="0.18" laneDensity="0.18" occupancy="0.09" waitingTime="0.00" timeLoss="5.70" speed="9.76" speedRelative="0.70" departed="1" arrived="0" entered="1" left="1" laneChangedFrom="0" laneChangedTo="0"/>
        <edge id="-1081152634#4" sampledSeconds="7.96" traveltime="3.80" overlapTraveltime="4.55" density="0.33" laneDensity="0.33" occupancy="0.15" waitingTime="0.00" timeLoss="2.53" speed="8.97" speedRelative="0.65" departed="2" arrived="0" entered="0" left="2" laneChangedFrom="0" laneChangedTo="0"/>
        <edge id="-1082241850" sampledSeconds="0.00" departed="0" arrived="0" entered="0" left="0" laneChangedFrom="0" laneChangedTo="0"/>
        <edge id="-1082956194" sampledSeconds="0.00" departed="0" arrived="0" entered="0" left="0" laneChangedFrom="0" laneChangedTo="0"/>
        <edge id="-1082956195" sampledSeconds="0.00" departed="0" arrived="0" entered="0" left="0" laneChangedFrom="0" laneChangedTo="0"/>
        <edge id="-1083458886" sampledSeconds="4.83" traveltime="4.47" overlapTraveltime="4.98" density="0.20" laneDensity="0.20" occupancy="0.09" waitingTime="0.00" timeLoss="1.44" speed="8.24" speedRelative="0.59" departed="0" arrived="1" entered="1" left="0" laneChangedFrom="0" laneChangedTo="0"/>
        <edge id="-1083458887#0" sampledSeconds="84.71" traveltime="9.86" overlapTraveltime="10.65" density="1.28" laneDensity="1.28" occupancy="0.60" waitingTime="0.00" timeLoss="20.98" speed="9.79" speedRelative="0.70" departed="1" arrived="2" entered="7" left="6" laneChangedFrom="0" laneChangedTo="0"/>
        <edge id="-1083458887#1" sampledSeconds="24.02" traveltime="7.88" overlapTraveltime="8.40" density="0.54" laneDensity="0.54" occupancy="0.26" waitingTime="0.00" timeLoss="9.33" speed="8.53" speedRelative="0.61" departed="2" arrived="1" entered="1" left="2" laneChangedFrom="0" laneChangedTo="0"/>
        <edge id="-1092824574#0" sampledSeconds="0.00" departed="0" arrived="0" entered="0" left="0" laneChangedFrom="0" laneChangedTo="0"/>
        <edge id="-1092824574#1" sampledSeconds="10.99" traveltime="4.73" overlapTraveltime="5.50" density="0.43" laneDensity="0.43" occupancy="0.18" waitingTime="0.00" timeLoss="3.95" speed="7.91" speedRelative="0.57" departed="0" arrived="0" entered="2" left="2" laneChangedFrom="0" laneChangedTo="0"/>
        <edge id="-1100653235#0" sampledSeconds="226.49" traveltime="23.87" overlapTraveltime="46.51" density="9.99" laneDensity="9.99" occupancy="4.15" waitingTime="186.00" timeLoss="211.91" speed="0.84" speedRelative="0.06" departed="1" arrived="0" entered="4" left="5" laneChangedFrom="0" laneChangedTo="0"/>
        <edge id="-1100653235#1" sampledSeconds="22.53" traveltime="3.59" overlapTraveltime="4.28" density="1.27" laneDensity="1.27" occupancy="0.53" waitingTime="0.00" timeLoss="10.96" speed="7.38" speedRelative="0.53" departed="0" arrived="1" entered="6" left="4" laneChangedFrom="0" laneChangedTo="0"/>
        <edge id="-1100816193#0" sampledSeconds="0.00" departed="0" arrived="0" entered="0" left="0" laneChangedFrom="0" laneChangedTo="0"/>
        <edge id="-1100816193#1" sampledSeconds="21.51" traveltime="10.23" overlapTraveltime="10.77" density="0.26" laneDensity="0.26" occupancy="0.12" waitingTime="0.00" timeLoss="3.67" speed="11.99" speedRelative="0.86" departed="0" arrived="1" entered="2" left="1" laneChangedFrom="0" laneChangedTo="0"/>
        <edge id="-1100816194" sampledSeconds="12.88" traveltime="4.11" overlapTraveltime="4.84" density="0.48" laneDensity="0.48" occupancy="0.22" waitingTime="0.00" timeLoss="2.35" speed="9.32" speedRelative="0.67" departed="3" arrived="0" entered="0" left="3" laneChangedFrom="0" laneChangedTo="0"/>
        <edge id="-1103401466" sampledSeconds="3.80" traveltime="0.40" overlapTraveltime="1.44" density="2.02" laneDensity="2.02" occupancy="0.40" waitingTime="0.00" timeLoss="2.15" speed="5.44" speedRelative="0.39" departed="1" arrived="0" entered="2" left="3" laneChangedFrom="0" laneChangedTo="0"/>
        <edge id="-1103523558" sampledSeconds="0.00" departed="0" arrived="0" entered="0" left="0" laneChangedFrom="0" laneChangedTo="0"/>
        <edge id="-1103523559" sampledSeconds="0.00" departed="0" arrived="0" entered="0" left="0" laneChangedFrom="0" laneChangedTo="0"/>
        <edge id="-1104946680#0" sampledSeconds="0.00" departed="0" arrived="0" entered="0" left="0" laneChangedFrom="0" laneChangedTo="0"/>
        <edge id="-1104946680#1" sampledSeconds="0.00" departed="0" arrived="0" entered="0" left="0" laneChangedFrom="0" laneChangedTo="0"/>
        <edge id="-1104946680#2" sampledSeconds="0.00" departed="0" arrived="0" entered="0" left="0" laneChangedFrom="0" laneChangedTo="0"/>
        <edge id="-1104946681" sampledSeconds="0.00" departed="0" arrived="0" entered="0" left="0" laneChangedFrom="0" laneChangedTo="0"/>
        <edge id="-1104946682" sampledSeconds="0.00" departed="0" arrived="0" entered="0" left="0" laneChangedFrom="0" laneChangedTo="0"/>
        <edge id="-1107091878" sampledSeconds="244.91" traveltime="19.26" overlapTraveltime="20.41" density="14.87" laneDensity="14.87" occupancy="7.15" waitingTime="167.00" timeLoss="214.15" speed="1.46" speedRelative="0.11" departed="0" arrived="1" entered="12" left="11" laneChangedFrom="0" laneChangedTo="0"/>
        <edge id="-1111030872" sampledSeconds="24.83" traveltime="11.88" overlapTraveltime="13.05" density="0.37" laneDensity="0.37" occupancy="0.18" waitingTime="2.00" timeLoss="9.42" speed="8.01" speedRelative="0.58" departed="2" arrived="0" entered="0" left="2" laneChangedFrom="0" laneChangedTo="0"/>
        <edge id="-1111770936" sampledSeconds="0.00" departed="0" arrived="0" entered="0" left="0" laneChangedFrom="0" laneChangedTo="0"/>
        <edge id="-1111781637" sampledSeconds="7.20" traveltime="6.86" overlapTraveltime="7.20" density="0.14" laneDensity="0.14" occupancy="0.07" waitingTime="0.00" timeLoss="1.85" speed="11.16" speedRelative="0.80" departed="0" arrived="0" entered="1" left="1" laneChangedFrom="0" laneChangedTo="0"/>
        <edge id="-1113239913" sampledSeconds="1015.85" traveltime="96.61" overlapTraveltime="101.23" density="114.51" laneDensity="114.51" occupancy="56.74" waitingTime="973.00" timeLoss="1001.61" speed="0.18" speedRelative="0.01" departed="0" arrived="0" entered="11" left="9" laneChangedFrom="0" laneChangedTo="0"/>
        <edge id="-1118700038#0" sampledSeconds="0.00" departed="0" arrived="0" entered="0" left="0" laneChangedFrom="0" laneChangedTo="0"/>
        <edge id="-1118700038#1" sampledSeconds="0.00" departed="0" arrived="0" entered="0" left="0" laneChangedFrom="0" laneChangedTo="0"/>
        <edge id="-1118700039" sampledSeconds="0.00" departed="0" arrived="0" entered="0" left="0" laneChangedFrom="0" laneChangedTo="0"/>
        <edge id="-1124901254#0" sampledSeconds="0.00" departed="0" arrived="0" entered="0" left="0" laneChangedFrom="0" laneChangedTo="0"/>
        <edge id="-1124901254#1" sampledSeconds="0.00" departed="0" arrived="0" entered="0" left="0" laneChangedFrom="0" laneChangedTo="0"/>
        <edge id="-1124901255" sampledSeconds="0.00" departed="0" arrived="0" entered="0" left="0" laneChangedFrom="0" laneChangedTo="0"/>
        <edge id="-1124901256" sampledSeconds="0.00" departed="0" arrived="0" entered="0" left="0" laneChangedFrom="0" laneChangedTo="0"/>