<?xml version="1.0" encoding="UTF-8"?>

<!-- generated on 2025-11-09 15:31:01 by Eclipse SUMO GUI Version 1.24.0
<sumoConfiguration xmlns:xsi="http://www.w3.org/2001/XMLSchema-instance" xsi:noNamespaceSchemaLocation="http://sumo.dlr.de/xsd/sumoConfiguration.xsd">

    <input>
        <net-file value="D:\Projects\Smart India Hackathon\Pathsync v3\2025-11-09-15-16-17\osm.net.xml.gz"/>
        <route-files value="D:\Projects\Smart India Hackathon\Pathsync v3\2025-11-09-15-16-17\osm.passenger.trips.xml"/>
        <additional-files value="D:\Projects\Smart India Hackathon\Pathsync v3\2025-11-09-15-16-17\osm.poly.xml.gz,D:\Projects\Smart India Hackathon\Pathsync v3\2025-11-09-15-16-17\output.add.xml"/>
    </input>

    <output>
        <tripinfo-output value="D:\Projects\Smart India Hackathon\Pathsync v3\2025-11-09-15-16-17\tripinfos.xml"/>
        <statistic-output value="D:\Projects\Smart India Hackathon\Pathsync v3\2025-11-09-15-16-17\stats.xml"/>
    </output>

    <processing>
        <ignore-route-errors value="true"/>
        <tls.actuated.jam-threshold value="30"/>
    </processing>

    <routing>
        <device.rerouting.adaptation-steps value="18"/>
        <device.rerouting.adaptation-interval value="10"/>
    </routing>

    <report>
        <verbose value="true"/>
        <duration-log.statistics value="true"/>
        <no-step-log value="true"/>
    </report>

    <gui_only>
        <gui-settings-file value="D:\Projects\Smart India Hackathon\Pathsync v3\2025-11-09-15-16-17\osm.view.xml"/>
    </gui_only>

</sumoConfiguration>
-->

<tripinfos xmlns:xsi="http://www.w3.org/2001/XMLSchema-instance" xsi:noNamespaceSchemaLocation="http://sumo.dlr.de/xsd/tripinfo_file.xsd">
    <tripinfo id="veh20" depart="2.00" departLane="-28485667#7_0" departPos="5.10" departSpeed="0.00" departDelay="0.56" arrival="53.00" arrivalLane="-319510008#0_0" arrivalPos="11.93" arrivalSpeed="13.57" duration="51.00" routeLength="687.43" waitingTime="0.00" waitingCount="0" stopTime="0.00" timeLoss="12.13" rerouteNo="1" devices="tripinfo_veh20 routing_veh20" vType="veh_passenger" speedFactor="1.02" vaporized=""/>
    <tripinfo id="veh136" depart="10.00" departLane="295839774#4_0" departPos="3.43" departSpeed="0.00" departDelay="0.20" arrival="58.00" arrivalLane="-28439102_0" arrivalPos="49.92" arrivalSpeed="14.82" duration="48.00" routeLength="560.86" waitingTime="0.00" waitingCount="0" stopTime="0.00" timeLoss="16.25" rerouteNo="1" devices="tripinfo_veh136 routing_veh136" vType="veh_passenger" speedFactor="1.12" vaporized=""/>
    <tripinfo id="veh57" depart="5.00" departLane="-319392756#0_0" departPos="5.10" departSpeed="0.00" departDelay="0.89" arrival="59.00" arrivalLane="28121208#15_0" arrivalPos="37.34" arrivalSpeed="19.39" duration="54.00" routeLength="489.37" waitingTime="14.00" waitingCount="1" stopTime="0.00" timeLoss="32.39" rerouteNo="1" devices="tripinfo_veh57 routing_veh57" vType="veh_passenger" speedFactor="1.14" vaporized=""/>
    <tripinfo id="veh131" depart="10.00" departLane="319662510#0_0" departPos="5.10" departSpeed="14.84" departDelay="0.56" arrival="61.00" arrivalLane="-319659806#1_0" arrivalPos="74.29" arrivalSpeed="13.79" duration="51.00" routeLength="608.31" waitingTime="0.00" waitingCount="0" stopTime="0.00" timeLoss="8.34" rerouteNo="1" devices="tripinfo_veh131 routing_veh131" vType="veh_passenger" speedFactor="1.07" vaporized=""/>
    <tripinfo id="veh239" depart="18.00" departLane="-28439212#3_0" departPos="5.10" departSpeed="0.00" departDelay="0.77" arrival="63.00" arrivalLane="-295839766#1_0" arrivalPos="4.27" arrivalSpeed="9.64" duration="45.00" routeLength="405.44" waitingTime="0.00" waitingCount="0" stopTime="0.00" timeLoss="18.25" rerouteNo="1" devices="tripinfo_veh239 routing_veh239" vType="veh_passenger" speedFactor="1.13" vaporized=""/>
    <tripinfo id="veh13" depart="1.00" departLane="358302710#4_0" departPos="5.10" departSpeed="0.00" departDelay="0.06" arrival="64.00" arrivalLane="233249034#2_0" arrivalPos="71.48" arrivalSpeed="14.53" duration="63.00" routeLength="1032.29" waitingTime="0.00" waitingCount="0" stopTime="0.00" timeLoss="21.96" rerouteNo="1" devices="tripinfo_veh13 routing_veh13" vType="veh_passenger" speedFactor="1.12" vaporized=""/>
    <tripinfo id="veh150" depart="11.00" departLane="319392744#8_0" departPos="5.10" departSpeed="0.00" departDelay="0.19" arrival="66.00" arrivalLane="360299040#11_0" arrivalPos="30.34" arrivalSpeed="12.12" duration="55.00" routeLength="676.67" waitingTime="0.00" waitingCount="0" stopTime="0.00" timeLoss="13.78" rerouteNo="1" devices="tripinfo_veh150 routing_veh150" vType="veh_passenger" speedFactor="0.96" vaporized=""/>
    <tripinfo id="veh142" depart="11.00" departLane="28119664#9_0" departPos="5.10" departSpeed="0.00" departDelay="0.76" arrival="67.00" arrivalLane="-316622214#4_0" arrivalPos="71.17" arrivalSpeed="12.05" duration="56.00" routeLength="815.67" waitingTime="0.00" waitingCount="0" stopTime="0.00" timeLoss="15.66" rerouteNo="1" devices="tripinfo_veh142 routing_veh142" vType="veh_passenger" speedFactor="0.94" vaporized=""/>
    <tripinfo id="veh198" depart="15.00" departLane="319392744#7_0" departPos="5.10" departSpeed="0.00" departDelay="0.73" arrival="67.00" arrivalLane="-28245990#3_0" arrivalPos="13.14" arrivalSpeed="8.00" duration="52.00" routeLength="629.74" waitingTime="0.00" waitingCount="0" stopTime="0.00" timeLoss="17.55" rerouteNo="1" devices="tripinfo_veh198 routing_veh198" vType="veh_passenger" speedFactor="1.06" vaporized=""/>
    <tripinfo id="veh207" depart="15.00" departLane="-28413646#8_0" departPos="5.10" departSpeed="0.00" departDelay="0.08" arrival="70.00" arrivalLane="28438826#1_0" arrivalPos="28.44" arrivalSpeed="12.20" duration="55.00" routeLength="575.55" waitingTime="0.00" waitingCount="0" stopTime="0.00" timeLoss="11.41" rerouteNo="1" devices="tripinfo_veh207 routing_veh207" vType="veh_passenger" speedFactor="0.97" vaporized=""/>
    <tripinfo id="veh75" depart="6.00" departLane="-232290199#1_0" departPos="5.10" departSpeed="0.00" departDelay="0.59" arrival="72.00" arrivalLane="-301736112#0_0" arrivalPos="15.90" arrivalSpeed="6.94" duration="66.00" routeLength="818.18" waitingTime="0.00" waitingCount="0" stopTime="0.00" timeLoss="23.15" rerouteNo="1" devices="tripinfo_veh75 routing_veh75" vType="veh_passenger" speedFactor="0.98" vaporized=""/>
    <tripinfo id="veh229" depart="17.00" departLane="-727863538#2_0" departPos="5.10" departSpeed="0.00" departDelay="0.49" arrival="75.00" arrivalLane="204014460#0_0" arrivalPos="68.52" arrivalSpeed="19.28" duration="58.00" routeLength="969.27" waitingTime="0.00" waitingCount="0" stopTime="0.00" timeLoss="16.50" rerouteNo="1" devices="tripinfo_veh229 routing_veh229" vType="veh_passenger" speedFactor="0.99" vaporized=""/>
    <tripinfo id="veh319" depart="23.00" departLane="-142759061#2_0" departPos="5.10" departSpeed="0.00" departDelay="0.01" arrival="75.00" arrivalLane="-28121206#4_0" arrivalPos="16.94" arrivalSpeed="24.76" duration="52.00" routeLength="746.44" waitingTime="0.00" waitingCount="0" stopTime="0.00" timeLoss="20.12" rerouteNo="1" devices="tripinfo_veh319 routing_veh319" vType="veh_passenger" speedFactor="1.13" vaporized=""/>
    <tripinfo id="veh45" depart="4.00" departLane="319392726#12_0" departPos="5.10" departSpeed="0.00" departDelay="0.76" arrival="77.00" arrivalLane="-826361118#10_0" arrivalPos="6.49" arrivalSpeed="13.38" duration="73.00" routeLength="734.02" waitingTime="7.00" waitingCount="1" stopTime="0.00" timeLoss="35.47" rerouteNo="1" devices="tripinfo_veh45 routing_veh45" vType="veh_passenger" speedFactor="1.09" vaporized=""/>
    <tripinfo id="veh442" depart="32.00" departLane="28419899#0_0" departPos="5.10" departSpeed="0.00" departDelay="0.14" arrival="80.00" arrivalLane="314269352#12_0" arrivalPos="0.42" arrivalSpeed="30.46" duration="48.00" routeLength="717.90" waitingTime="0.00" waitingCount="0" stopTime="0.00" timeLoss="14.49" rerouteNo="1" devices="tripinfo_veh442 routing_veh442" vType="veh_passenger" speedFactor="1.11" vaporized=""/>
    <tripinfo id="veh494" depart="36.00" departLane="28245996#5_0" departPos="5.10" departSpeed="0.00" departDelay="0.39" arrival="80.00" arrivalLane="28121214#23_0" arrivalPos="5.00" arrivalSpeed="25.04" duration="44.00" routeLength="670.91" waitingTime="0.00" waitingCount="0" stopTime="0.00" timeLoss="10.29" rerouteNo="1" devices="tripinfo_veh494 routing_veh494" vType="veh_passenger" speedFactor="1.18" vaporized=""/>
    <tripinfo id="veh58" depart="5.00" departLane="233244532#0_0" departPos="5.10" departSpeed="0.00" departDelay="0.82" arrival="81.00" arrivalLane="-28121214#27_0" arrivalPos="15.28" arrivalSpeed="10.04" duration="76.00" routeLength="1125.60" waitingTime="0.00" waitingCount="0" stopTime="0.00" timeLoss="13.31" rerouteNo="1" devices="tripinfo_veh58 routing_veh58" vType="veh_passenger" speedFactor="1.02" vaporized=""/>
    <tripinfo id="veh513" depart="37.00" departLane="822247613_0" departPos="5.10" departSpeed="14.91" departDelay="0.02" arrival="85.00" arrivalLane="-155751165#18_0" arrivalPos="5.47" arrivalSpeed="4.62" duration="48.00" routeLength="546.50" waitingTime="0.00" waitingCount="0" stopTime="0.00" timeLoss="18.46" rerouteNo="1" devices="tripinfo_veh513 routing_veh513" vType="veh_passenger" speedFactor="1.07" vaporized=""/>
    <tripinfo id="veh205" depart="15.00" departLane="358304913#7_0" departPos="5.10" departSpeed="0.00" departDelay="0.22" arrival="90.00" arrivalLane="-229549754#3_0" arrivalPos="10.02" arrivalSpeed="8.51" duration="75.00" routeLength="880.09" waitingTime="3.00" waitingCount="1" stopTime="0.00" timeLoss="25.24" rerouteNo="1" devices="tripinfo_veh205 routing_veh205" vType="veh_passenger" speedFactor="1.02" vaporized=""/>
    <tripinfo id="veh14" depart="2.00" departLane="319511469#6_0" departPos="5.10" departSpeed="0.00" departDelay="0.99" arrival="91.00" arrivalLane="311852703#7_0" arrivalPos="11.60" arrivalSpeed="21.83" duration="89.00" routeLength="1131.45" waitingTime="0.00" waitingCount="0" stopTime="0.00" timeLoss="31.44" rerouteNo="1" devices="tripinfo_veh14 routing_veh14" vType="veh_passenger" speedFactor="0.99" vaporized=""/>
    <tripinfo id="veh65" depart="5.00" departLane="360823222#0_0" departPos="5.10" departSpeed="0.00" departDelay="0.31" arrival="91.00" arrivalLane="822239685_0" arrivalPos="38.05" arrivalSpeed="10.98" duration="86.00" routeLength="635.00" waitingTime="0.00" waitingCount="0" stopTime="0.00" timeLoss="21.80" rerouteNo="1" devices="tripinfo_veh65 routing_veh65" vType="veh_passenger" speedFactor="0.88" vaporized=""/>
    <tripinfo id="veh485" depart="35.00" departLane="1232161312_0" departPos="5.10" departSpeed="13.11" departDelay="0.04" arrival="92.00" arrivalLane="-824764736_0" arrivalPos="103.73" arrivalSpeed="14.10" duration="57.00" routeLength="599.62" waitingTime="0.00" waitingCount="0" stopTime="0.00" timeLoss="13.66" rerouteNo="1" devices="tripinfo_veh485 routing_veh485" vType="veh_passenger" speedFactor="1.08" vaporized=""/>
    <tripinfo id="veh126" depart="10.00" departLane="360829792#0_0" departPos="5.10" departSpeed="0.00" departDelay="0.92" arrival="94.00" arrivalLane="360823215_0" arrivalPos="17.28" arrivalSpeed="14.08" duration="84.00" routeLength="1168.43" waitingTime="0.00" waitingCount="0" stopTime="0.00" timeLoss="27.66" rerouteNo="1" devices="tripinfo_veh126 routing_veh126" vType="veh_passenger" speedFactor="1.03" vaporized=""/>
    <tripinfo id="veh489" depart="36.00" departLane="-230599337#0_0" departPos="5.10" departSpeed="0.00" departDelay="0.75" arrival="94.00" arrivalLane="28419925#11_0" arrivalPos="10.95" arrivalSpeed="7.89" duration="58.00" routeLength="473.43" waitingTime="5.00" waitingCount="1" stopTime="0.00" timeLoss="22.92" rerouteNo="1" devices="tripinfo_veh489 routing_veh489" vType="veh_passenger" speedFactor="0.94" vaporized=""/>
    <tripinfo id="veh773" depart="59.00" departLane="-155751165#4_0" departPos="5.10" departSpeed="0.00" departDelay="3.28" arrival="94.00" arrivalLane="-233244486#4_0" arrivalPos="9.17" arrivalSpeed="9.57" duration="35.00" routeLength="444.17" waitingTime="0.00" waitingCount="0" stopTime="0.00" timeLoss="11.17" rerouteNo="1" devices="tripinfo_veh773 routing_veh773" vType="veh_passenger" speedFactor="1.14" vaporized=""/>
    <tripinfo id="veh36" depart="3.00" departLane="28245914#6_0" departPos="3.69" departSpeed="0.00" departDelay="0.41" arrival="95.00" arrivalLane="-822236221#0_0" arrivalPos="39.19" arrivalSpeed="13.14" duration="92.00" routeLength="1109.10" waitingTime="3.00" waitingCount="1" stopTime="0.00" timeLoss="28.20" rerouteNo="1" devices="tripinfo_veh36 routing_veh36" vType="veh_passenger" speedFactor="0.97" vaporized=""/>
    <tripinfo id="veh191" depart="14.00" departLane="396126123#7_0" departPos="5.10" departSpeed="0.00" departDelay="0.23" arrival="95.00" arrivalLane="26609987#1_0" arrivalPos="216.53" arrivalSpeed="14.61" duration="81.00" routeLength="1315.85" waitingTime="2.00" waitingCount="1" stopTime="0.00" timeLoss="21.25" rerouteNo="1" devices="tripinfo_veh191 routing_veh191" vType="veh_passenger" speedFactor="0.93" vaporized=""/>
    <tripinfo id="veh606" depart="44.00" departLane="267226866#1_0" departPos="5.10" departSpeed="0.00" departDelay="0.32" arrival="95.00" arrivalLane="-28121208#4_0" arrivalPos="4.13" arrivalSpeed="20.68" duration="51.00" routeLength="638.70" waitingTime="0.00" waitingCount="0" stopTime="0.00" timeLoss="11.27" rerouteNo="1" devices="tripinfo_veh606 routing_veh606" vType="veh_passenger" speedFactor="0.95" vaporized=""/>
    <tripinfo id="veh312" depart="23.00" departLane="360314918#2_0" departPos="5.10" departSpeed="0.00" departDelay="0.51" arrival="97.00" arrivalLane="1298275428_0" arrivalPos="7.70" arrivalSpeed="9.16" duration="74.00" routeLength="874.35" waitingTime="2.00" waitingCount="1" stopTime="0.00" timeLoss="28.92" rerouteNo="1" devices="tripinfo_veh312 routing_veh312" vType="veh_passenger" speedFactor="1.11" vaporized=""/>
    <tripinfo id="veh330" depart="24.00" departLane="28245975#8_0" departPos="3.56" departSpeed="0.00" departDelay="0.21" arrival="97.00" arrivalLane="-28121247#14_0" arrivalPos="9.88" arrivalSpeed="12.76" duration="73.00" routeLength="1015.13" waitingTime="0.00" waitingCount="0" stopTime="0.00" timeLoss="17.93" rerouteNo="1" devices="tripinfo_veh330 routing_veh330" vType="veh_passenger" speedFactor="0.96" vaporized=""/>
    <tripinfo id="veh347" depart="26.00" departLane="-1314807370#2_0" departPos="5.10" departSpeed="11.42" departDelay="0.99" arrival="100.00" arrivalLane="-843814322#4_0" arrivalPos="45.46" arrivalSpeed="10.61" duration="74.00" routeLength="687.81" waitingTime="0.00" waitingCount="0" stopTime="0.00" timeLoss="11.82" rerouteNo="1" devices="tripinfo_veh347 routing_veh347" vType="veh_passenger" speedFactor="0.82" vaporized=""/>
    <tripinfo id="veh421" depart="31.00" departLane="-1372618826_0" departPos="5.10" departSpeed="13.84" departDelay="0.66" arrival="101.00" arrivalLane="319392751#2_0" arrivalPos="32.42" arrivalSpeed="13.63" duration="70.00" routeLength="608.68" waitingTime="10.00" waitingCount="2" stopTime="0.00" timeLoss="34.35" rerouteNo="1" devices="tripinfo_veh421 routing_veh421" vType="veh_passenger" speedFactor="1.05" vaporized=""/>
    <tripinfo id="veh387" depart="28.00" departLane="-822236220#1_0" departPos="5.10" departSpeed="0.00" departDelay="0.11" arrival="103.00" arrivalLane="728048250#2_0" arrivalPos="55.16" arrivalSpeed="14.85" duration="75.00" routeLength="722.06" waitingTime="0.00" waitingCount="0" stopTime="0.00" timeLoss="17.29" rerouteNo="1" devices="tripinfo_veh387 routing_veh387" vType="veh_passenger" speedFactor="0.90" vaporized=""/>
    <tripinfo id="veh133" depart="10.00" departLane="-232340611_0" departPos="5.10" departSpeed="0.00" departDelay="0.41" arrival="105.00" arrivalLane="-232291716#3_0" arrivalPos="132.62" arrivalSpeed="13.63" duration="95.00" routeLength="1610.94" waitingTime="0.00" waitingCount="0" stopTime="0.00" timeLoss="22.21" rerouteNo="1" devices="tripinfo_veh133 routing_veh133" vType="veh_passenger" speedFactor="1.04" vaporized=""/>
    <tripinfo id="veh206" depart="15.00" departLane="-822233245_0" departPos="5.10" departSpeed="0.00" departDelay="0.15" arrival="106.00" arrivalLane="267226918#7_0" arrivalPos="11.72" arrivalSpeed="8.97" duration="91.00" routeLength="920.95" waitingTime="3.00" waitingCount="1" stopTime="0.00" timeLoss="29.43" rerouteNo="1" devices="tripinfo_veh206 routing_veh206" vType="veh_passenger" speedFactor="1.00" vaporized=""/>
    <tripinfo id="veh366" depart="27.00" departLane="85564958#0_0" departPos="5.10" departSpeed="24.77" departDelay="0.62" arrival="106.00" arrivalLane="28245975#7_0" arrivalPos="4.63" arrivalSpeed="9.44" duration="79.00" routeLength="1237.32" waitingTime="0.00" waitingCount="0" stopTime="0.00" timeLoss="22.29" rerouteNo="1" devices="tripinfo_veh366 routing_veh366" vType="veh_passenger" speedFactor="1.11" vaporized=""/>
    <tripinfo id="veh407" depart="30.00" departLane="28245914#11_0" departPos="5.05" departSpeed="0.00" departDelay="0.66" arrival="106.00" arrivalLane="-28121214#47_0" arrivalPos="108.70" arrivalSpeed="18.18" duration="76.00" routeLength="736.74" waitingTime="5.00" waitingCount="1" stopTime="0.00" timeLoss="28.98" rerouteNo="1" devices="tripinfo_veh407 routing_veh407" vType="veh_passenger" speedFactor="0.86" vaporized=""/>
    <tripinfo id="veh533" depart="39.00" departLane="-360823233#0_0" departPos="5.10" departSpeed="0.00" departDelay="0.58" arrival="107.00" arrivalLane="-28121214#24_0" arrivalPos="4.34" arrivalSpeed="4.93" duration="68.00" routeLength="1068.93" waitingTime="0.00" waitingCount="0" stopTime="0.00" timeLoss="16.29" rerouteNo="1" devices="tripinfo_veh533 routing_veh533" vType="veh_passenger" speedFactor="0.99" vaporized=""/>
    <tripinfo id="veh27" depart="2.00" departLane="-28121247#3_0" departPos="5.10" departSpeed="0.00" departDelay="0.05" arrival="108.00" arrivalLane="311852701#0_0" arrivalPos="115.55" arrivalSpeed="20.91" duration="106.00" routeLength="1250.25" waitingTime="7.00" waitingCount="1" stopTime="0.00" timeLoss="38.45" rerouteNo="1" devices="tripinfo_veh27 routing_veh27" vType="veh_passenger" speedFactor="0.95" vaporized=""/>
    <tripinfo id="veh560" depart="41.00" departLane="-822574863_0" departPos="5.10" departSpeed="0.00" departDelay="0.64" arrival="109.00" arrivalLane="-360299057#0_0" arrivalPos="27.77" arrivalSpeed="13.98" duration="68.00" routeLength="888.55" waitingTime="0.00" waitingCount="0" stopTime="0.00" timeLoss="25.55" rerouteNo="1" devices="tripinfo_veh560 routing_veh560" vType="veh_passenger" speedFactor="1.13" vaporized=""/>
    <tripinfo id="veh662" depart="48.00" departLane="319392762#3_0" departPos="4.26" departSpeed="0.00" departDelay="0.28" arrival="109.00" arrivalLane="-267226865#2_0" arrivalPos="9.34" arrivalSpeed="11.34" duration="61.00" routeLength="500.60" waitingTime="4.00" waitingCount="1" stopTime="0.00" timeLoss="22.86" rerouteNo="1" devices="tripinfo_veh662 routing_veh662" vType="veh_passenger" speedFactor="0.88" vaporized=""/>
    <tripinfo id="veh178" depart="13.00" departLane="-361380216#0_0" departPos="5.10" departSpeed="0.00" departDelay="0.17" arrival="110.00" arrivalLane="231431523#15_0" arrivalPos="43.18" arrivalSpeed="13.77" duration="97.00" routeLength="1316.75" waitingTime="0.00" waitingCount="0" stopTime="0.00" timeLoss="20.27" rerouteNo="1" devices="tripinfo_veh178 routing_veh178" vType="veh_passenger" speedFactor="1.08" vaporized=""/>
    <tripinfo id="veh235" depart="17.00" departLane="-360294199#1_0" departPos="5.10" departSpeed="0.00" departDelay="0.06" arrival="110.00" arrivalLane="315993717#0_0" arrivalPos="34.11" arrivalSpeed="12.88" duration="93.00" routeLength="987.03" waitingTime="0.00" waitingCount="0" stopTime="0.00" timeLoss="21.64" rerouteNo="1" devices="tripinfo_veh235 routing_veh235" vType="veh_passenger" speedFactor="0.96" vaporized=""/>
    <tripinfo id="veh48" depart="4.00" departLane="826132292#5_1" departPos="5.10" departSpeed="0.00" departDelay="0.54" arrival="113.00" arrivalLane="360299040#12_0" arrivalPos="36.99" arrivalSpeed="11.98" duration="109.00" routeLength="1265.90" waitingTime="16.00" waitingCount="1" stopTime="0.00" timeLoss="43.66" rerouteNo="1" devices="tripinfo_veh48 routing_veh48" vType="veh_passenger" speedFactor="0.88" vaporized=""/>
    <tripinfo id="veh130" depart="10.00" departLane="28245900#14_0" departPos="5.10" departSpeed="0.00" departDelay="0.63" arrival="113.00" arrivalLane="-1189374440#0_0" arrivalPos="70.69" arrivalSpeed="13.64" duration="103.00" routeLength="1276.40" waitingTime="6.00" waitingCount="2" stopTime="0.00" timeLoss="43.50" rerouteNo="1" devices="tripinfo_veh130 routing_veh130" vType="veh_passenger" speedFactor="1.03" vaporized=""/>
    <tripinfo id="veh158" depart="13.00" departLane="-1256463232#2_0" departPos="5.10" departSpeed="0.00" departDelay="1.61" arrival="115.00" arrivalLane="313176047#0_0" arrivalPos="75.13" arrivalSpeed="11.84" duration="102.00" routeLength="1133.48" waitingTime="5.00" waitingCount="2" stopTime="0.00" timeLoss="35.87" rerouteNo="1" devices="tripinfo_veh158 routing_veh158" vType="veh_passenger" speedFactor="0.91" vaporized=""/>
    <tripinfo id="veh488" depart="36.00" departLane="822574250#1_0" departPos="0.20" departSpeed="0.00" departDelay="0.83" arrival="115.00" arrivalLane="360289193#0_0" arrivalPos="153.57" arrivalSpeed="14.40" duration="79.00" routeLength="1029.60" waitingTime="0.00" waitingCount="0" stopTime="0.00" timeLoss="23.69" rerouteNo="1" devices="tripinfo_veh488 routing_veh488" vType="veh_passenger" speedFactor="1.09" vaporized=""/>
    <tripinfo id="veh6" depart="1.00" departLane="28121247#6_0" departPos="5.10" departSpeed="0.00" departDelay="0.57" arrival="116.00" arrivalLane="229486918#3_1" arrivalPos="32.32" arrivalSpeed="11.93" duration="115.00" routeLength="1676.25" waitingTime="0.00" waitingCount="0" stopTime="0.00" timeLoss="39.66" rerouteNo="1" devices="tripinfo_veh6 routing_veh6" vType="veh_passenger" speedFactor="1.05" vaporized=""/>
    <tripinfo id="veh254" depart="19.00" departLane="28245882#0_0" departPos="5.10" departSpeed="0.00" departDelay="0.69" arrival="116.00" arrivalLane="315993721#0_0" arrivalPos="38.81" arrivalSpeed="11.96" duration="97.00" routeLength="1224.11" waitingTime="6.00" waitingCount="1" stopTime="0.00" timeLoss="29.30" rerouteNo="1" devices="tripinfo_veh254 routing_veh254" vType="veh_passenger" speedFactor="0.88" vaporized=""/>
    <tripinfo id="veh38" depart="3.00" departLane="-315993717#3_0" departPos="5.10" departSpeed="0.00" departDelay="0.26" arrival="119.00" arrivalLane="-315427802#3_0" arrivalPos="131.67" arrivalSpeed="14.80" duration="116.00" routeLength="1482.22" waitingTime="0.00" waitingCount="0" stopTime="0.00" timeLoss="17.38" rerouteNo="1" devices="tripinfo_veh38 routing_veh38" vType="veh_passenger" speedFactor="1.10" vaporized=""/>
    <tripinfo id="veh463" depart="35.00" departLane="826118154#1_0" departPos="5.10" departSpeed="0.00" departDelay="1.63" arrival="119.00" arrivalLane="360297392_0" arrivalPos="92.08" arrivalSpeed="15.76" duration="84.00" routeLength="908.16" waitingTime="5.00" waitingCount="1" stopTime="0.00" timeLoss="31.55" rerouteNo="1" devices="tripinfo_veh463 routing_veh463" vType="veh_passenger" speedFactor="1.16" vaporized=""/>
    <tripinfo id="veh440" depart="32.00" departLane="826411008_0" departPos="5.10" departSpeed="0.00" departDelay="0.29" arrival="120.00" arrivalLane="28245983#5_0" arrivalPos="2.06" arrivalSpeed="8.33" duration="88.00" routeLength="956.84" waitingTime="2.00" waitingCount="1" stopTime="0.00" timeLoss="25.35" rerouteNo="1" devices="tripinfo_veh440 routing_veh440" vType="veh_passenger" speedFactor="0.89" vaporized=""/>
    <tripinfo id="veh719" depart="52.00" departLane="1293792656_0" departPos="5.10" departSpeed="25.22" departDelay="0.18" arrival="121.00" arrivalLane="50335591#0_0" arrivalPos="4.54" arrivalSpeed="7.04" duration="69.00" routeLength="1090.75" waitingTime="0.00" waitingCount="0" stopTime="0.00" timeLoss="18.02" rerouteNo="1" devices="tripinfo_veh719 routing_veh719" vType="veh_passenger" speedFactor="0.91" vaporized=""/>
    <tripinfo id="veh1037" depart="75.00" departLane="-28413610#2_0" departPos="0.39" departSpeed="0.00" departDelay="0.25" arrival="122.00" arrivalLane="193440381#2_0" arrivalPos="17.88" arrivalSpeed="8.34" duration="47.00" routeLength="481.60" waitingTime="0.00" waitingCount="0" stopTime="0.00" timeLoss="12.70" rerouteNo="1" devices="tripinfo_veh1037 routing_veh1037" vType="veh_passenger" speedFactor="0.87" vaporized=""/>
    <tripinfo id="veh830" depart="60.00" departLane="-326134794#5_0" departPos="0.21" departSpeed="13.80" departDelay="0.17" arrival="123.00" arrivalLane="257431309_0" arrivalPos="140.94" arrivalSpeed="13.50" duration="63.00" routeLength="716.52" waitingTime="0.00" waitingCount="0" stopTime="0.00" timeLoss="9.04" rerouteNo="1" devices="tripinfo_veh830 routing_veh830" vType="veh_passenger" speedFactor="0.99" vaporized=""/>
    <tripinfo id="veh123" depart="9.00" departLane="86263898#4_0" departPos="5.10" departSpeed="0.00" departDelay="0.13" arrival="124.00" arrivalLane="86260506#13_0" arrivalPos="0.44" arrivalSpeed="7.36" duration="115.00" routeLength="1381.65" waitingTime="0.00" waitingCount="0" stopTime="0.00" timeLoss="14.92" rerouteNo="1" devices="tripinfo_veh123 routing_veh123" vType="veh_passenger" speedFactor="1.02" vaporized=""/>
    <tripinfo id="veh86" depart="7.00" departLane="-230599306_0" departPos="5.10" departSpeed="0.00" departDelay="0.80" arrival="125.00" arrivalLane="-8285857#7_0" arrivalPos="1.87" arrivalSpeed="12.88" duration="118.00" routeLength="1481.57" waitingTime="0.00" waitingCount="0" stopTime="0.00" timeLoss="36.64" rerouteNo="1" devices="tripinfo_veh86 routing_veh86" vType="veh_passenger" speedFactor="1.00" vaporized=""/>
    <tripinfo id="veh245" depart="18.00" departLane="-1256470658_0" departPos="5.10" departSpeed="0.00" departDelay="0.34" arrival="125.00" arrivalLane="28121214#37_0" arrivalPos="6.14" arrivalSpeed="21.67" duration="107.00" routeLength="469.64" waitingTime="50.00" waitingCount="2" stopTime="0.00" timeLoss="75.54" rerouteNo="1" devices="tripinfo_veh245 routing_veh245" vType="veh_passenger" speedFactor="1.01" vaporized=""/>
    <tripinfo id="veh486" depart="36.00" departLane="823441931#2_0" departPos="5.10" departSpeed="0.00" departDelay="0.97" arrival="126.00" arrivalLane="-1315002524_0" arrivalPos="16.87" arrivalSpeed="12.66" duration="90.00" routeLength="847.56" waitingTime="20.00" waitingCount="1" stopTime="0.00" timeLoss="53.66" rerouteNo="1" devices="tripinfo_veh486 routing_veh486" vType="veh_passenger" speedFactor="1.24" vaporized=""/>
    <tripinfo id="veh137" depart="10.00" departLane="276196056#0_0" departPos="0.20" departSpeed="0.00" departDelay="0.13" arrival="127.00" arrivalLane="-316859927#1_0" arrivalPos="34.49" arrivalSpeed="13.10" duration="117.00" routeLength="1892.82" waitingTime="0.00" waitingCount="0" stopTime="0.00" timeLoss="19.74" rerouteNo="1" devices="tripinfo_veh137 routing_veh137" vType="veh_passenger" speedFactor="1.02" vaporized=""/>
    <tripinfo id="veh70" depart="6.00" departLane="-824731615_0" departPos="5.10" departSpeed="0.00" departDelay="0.95" arrival="128.00" arrivalLane="-28451181#6_0" arrivalPos="52.38" arrivalSpeed="13.39" duration="122.00" routeLength="1549.52" waitingTime="0.00" waitingCount="0" stopTime="0.00" timeLoss="44.65" rerouteNo="1" devices="tripinfo_veh70 routing_veh70" vType="veh_passenger" speedFactor="1.02" vaporized=""/>
    <tripinfo id="veh151" depart="11.00" departLane="396121254#0_1" departPos="5.10" departSpeed="0.00" departDelay="0.12" arrival="128.00" arrivalLane="-28451061#7_0" arrivalPos="50.94" arrivalSpeed="13.10" duration="117.00" routeLength="1329.31" waitingTime="14.00" waitingCount="2" stopTime="0.00" timeLoss="50.86" rerouteNo="1" devices="tripinfo_veh151 routing_veh151" vType="veh_passenger" speedFactor="1.00" vaporized=""/>
    <tripinfo id="veh8" depart="1.00" departLane="319658461#0_0" departPos="5.10" departSpeed="0.00" departDelay="0.42" arrival="130.00" arrivalLane="-1133370035#4_0" arrivalPos="72.05" arrivalSpeed="17.21" duration="129.00" routeLength="2121.93" waitingTime="0.00" waitingCount="0" stopTime="0.00" timeLoss="27.64" rerouteNo="1" devices="tripinfo_veh8 routing_veh8" vType="veh_passenger" speedFactor="0.94" vaporized=""/>
    <tripinfo id="veh458" depart="34.00" departLane="326134772#0_0" departPos="5.10" departSpeed="0.00" departDelay="0.99" arrival="130.00" arrivalLane="-316169372#6_0" arrivalPos="31.51" arrivalSpeed="10.05" duration="96.00" routeLength="809.84" waitingTime="0.00" waitingCount="0" stopTime="0.00" timeLoss="18.16" rerouteNo="1" devices="tripinfo_veh458 routing_veh458" vType="veh_passenger" speedFactor="0.80" vaporized=""/>
    <tripinfo id="veh570" depart="42.00" departLane="28413675#2_0" departPos="5.10" departSpeed="0.00" departDelay="0.92" arrival="130.00" arrivalLane="1256559070_0" arrivalPos="73.22" arrivalSpeed="16.40" duration="88.00" routeLength="1118.01" waitingTime="2.00" waitingCount="1" stopTime="0.00" timeLoss="37.74" rerouteNo="1" devices="tripinfo_veh570 routing_veh570" vType="veh_passenger" speedFactor="1.24" vaporized=""/>
    <tripinfo id="veh361" depart="27.00" departLane="-319091460#0_0" departPos="5.10" departSpeed="0.00" departDelay="0.98" arrival="131.00" arrivalLane="822233239_0" arrivalPos="92.79" arrivalSpeed="12.60" duration="104.00" routeLength="1191.34" waitingTime="0.00" waitingCount="0" stopTime="0.00" timeLoss="33.02" rerouteNo="1" devices="tripinfo_veh361 routing_veh361" vType="veh_passenger" speedFactor="0.95" vaporized=""/>