<?xml version="1.0" encoding="UTF-8"?>

<!-- generated on 2025-11-09 12:33:42 by Eclipse SUMO GUI Version 1.24.0
<sumoConfiguration xmlns:xsi="http://www.w3.org/2001/XMLSchema-instance" xsi:noNamespaceSchemaLocation="http://sumo.dlr.de/xsd/sumoConfiguration.xsd">

    <input>
        <net-file value="D:\Projects\Smart India Hackathon\Pathsync v3\backend\simulation\2025-11-09-12-30-55\osm.net.xml.gz"/>
        <route-files value="D:\Projects\Smart India Hackathon\Pathsync v3\backend\simulation\2025-11-09-12-30-55\osm.passenger.trips.xml"/>
        <additional-files value="D:\Projects\Smart India Hackathon\Pathsync v3\backend\simulation\2025-11-09-12-30-55\osm.poly.xml.gz,D:\Projects\Smart India Hackathon\Pathsync v3\backend\simulation\2025-11-09-12-30-55\output.add.xml"/>
    </input>

    <output>
        <tripinfo-output value="D:\Projects\Smart India Hackathon\Pathsync v3\backend\simulation\2025-11-09-12-30-55\tripinfos.xml"/>
        <statistic-output value="D:\Projects\Smart India Hackathon\Pathsync v3\backend\simulation\2025-11-09-12-30-55\stats.xml"/>
    </output>

    <processing>
        <ignore-route-errors value="true"/>
        <tls.actuated.jam-threshold value="30"/>
    </processing>

    <routing>
        <device.rerouting.adaptation-steps value="18"/>
        <device.rerouting.adaptation-interval value="10"/>
    </routing>

    <report>
        <verbose value="true"/>
        <duration-log.statistics value="true"/>
        <no-step-log value="true"/>
    </report>

    <gui_only>
        <gui-settings-file value="D:\Projects\Smart India Hackathon\Pathsync v3\backend\simulation\2025-11-09-12-30-55\osm.view.xml"/>
    </gui_only>

</sumoConfiguration>
-->

<tripinfos xmlns:xsi="http://www.w3.org/2001/XMLSchema-instance" xsi:noNamespaceSchemaLocation="http://sumo.dlr.de/xsd/tripinfo_file.xsd">
    <tripinfo id="veh63" depart="30.00" departLane="-1213221451_0" departPos="5.10" departSpeed="13.71" departDelay="0.16" arrival="66.00" arrivalLane="727779330#7_0" arrivalPos="20.99" arrivalSpeed="12.92" duration="36.00" routeLength="381.36" waitingTime="0.00" waitingCount="0" stopTime="0.00" timeLoss="7.80" rerouteNo="1" devices="tripinfo_veh63 routing_veh63" vType="veh_passenger" speedFactor="0.99" vaporized=""/>
    <tripinfo id="veh37" depart="18.00" departLane="28245970#2_0" departPos="4.83" departSpeed="0.00" departDelay="0.47" arrival="86.00" arrivalLane="-822247616#0_0" arrivalPos="19.18" arrivalSpeed="16.25" duration="68.00" routeLength="991.89" waitingTime="0.00" waitingCount="0" stopTime="0.00" timeLoss="21.13" rerouteNo="1" devices="tripinfo_veh37 routing_veh37" vType="veh_passenger" speedFactor="1.18" vaporized=""/>
    <tripinfo id="veh21" depart="10.00" departLane="-28485670#3_0" departPos="5.10" departSpeed="0.00" departDelay="0.05" arrival="88.00" arrivalLane="-319392767#9_0" arrivalPos="7.35" arrivalSpeed="12.76" duration="78.00" routeLength="1159.94" waitingTime="0.00" waitingCount="0" stopTime="0.00" timeLoss="18.12" rerouteNo="1" devices="tripinfo_veh21 routing_veh21" vType="veh_passenger" speedFactor="1.01" vaporized=""/>
    <tripinfo id="veh30" depart="15.00" departLane="85564976#5_0" departPos="5.10" departSpeed="0.00" departDelay="0.79" arrival="88.00" arrivalLane="28121208#17_0" arrivalPos="19.81" arrivalSpeed="24.93" duration="73.00" routeLength="1227.92" waitingTime="0.00" waitingCount="0" stopTime="0.00" timeLoss="25.03" rerouteNo="1" devices="tripinfo_veh30 routing_veh30" vType="veh_passenger" speedFactor="1.18" vaporized=""/>
    <tripinfo id="veh28" depart="14.00" departLane="-28121252#17_0" departPos="5.10" departSpeed="0.00" departDelay="0.74" arrival="95.00" arrivalLane="311851899#8_0" arrivalPos="17.27" arrivalSpeed="9.97" duration="81.00" routeLength="971.04" waitingTime="0.00" waitingCount="0" stopTime="0.00" timeLoss="17.49" rerouteNo="1" devices="tripinfo_veh28 routing_veh28" vType="veh_passenger" speedFactor="1.13" vaporized=""/>
    <tripinfo id="veh11" depart="6.00" departLane="-358035182#1_0" departPos="5.10" departSpeed="0.00" departDelay="0.79" arrival="98.00" arrivalLane="-28121247#17_0" arrivalPos="49.17" arrivalSpeed="13.76" duration="92.00" routeLength="1449.58" waitingTime="0.00" waitingCount="0" stopTime="0.00" timeLoss="19.81" rerouteNo="1" devices="tripinfo_veh11 routing_veh11" vType="veh_passenger" speedFactor="1.03" vaporized=""/>
    <tripinfo id="veh15" depart="8.00" departLane="319511469#3_0" departPos="5.10" departSpeed="0.00" departDelay="0.89" arrival="102.00" arrivalLane="311851901#2_0" arrivalPos="17.09" arrivalSpeed="12.12" duration="94.00" routeLength="1131.07" waitingTime="0.00" waitingCount="0" stopTime="0.00" timeLoss="34.39" rerouteNo="1" devices="tripinfo_veh15 routing_veh15" vType="veh_passenger" speedFactor="0.93" vaporized=""/>
    <tripinfo id="veh137" depart="65.00" departLane="-231429518#0_0" departPos="5.10" departSpeed="0.00" departDelay="0.10" arrival="113.00" arrivalLane="229548700#2_0" arrivalPos="109.38" arrivalSpeed="13.10" duration="48.00" routeLength="537.03" waitingTime="0.00" waitingCount="0" stopTime="0.00" timeLoss="12.73" rerouteNo="1" devices="tripinfo_veh137 routing_veh137" vType="veh_passenger" speedFactor="1.02" vaporized=""/>
    <tripinfo id="veh58" depart="28.00" departLane="-319392759#3_0" departPos="5.10" departSpeed="14.22" departDelay="0.53" arrival="119.00" arrivalLane="28121206#0_0" arrivalPos="138.76" arrivalSpeed="21.67" duration="91.00" routeLength="1391.36" waitingTime="0.00" waitingCount="0" stopTime="0.00" timeLoss="23.88" rerouteNo="1" devices="tripinfo_veh58 routing_veh58" vType="veh_passenger" speedFactor="1.02" vaporized=""/>
    <tripinfo id="veh31" depart="15.00" departLane="229552435#1_0" departPos="5.10" departSpeed="0.00" departDelay="0.32" arrival="120.00" arrivalLane="28419868#1_0" arrivalPos="12.23" arrivalSpeed="12.88" duration="105.00" routeLength="1420.87" waitingTime="0.00" waitingCount="0" stopTime="0.00" timeLoss="38.42" rerouteNo="1" devices="tripinfo_veh31 routing_veh31" vType="veh_passenger" speedFactor="1.15" vaporized=""/>
    <tripinfo id="veh113" depart="54.00" departLane="-276196056#2_0" departPos="5.10" departSpeed="0.00" departDelay="0.47" arrival="126.00" arrivalLane="824818923_0" arrivalPos="48.47" arrivalSpeed="13.40" duration="72.00" routeLength="741.70" waitingTime="0.00" waitingCount="0" stopTime="0.00" timeLoss="18.67" rerouteNo="1" devices="tripinfo_veh113 routing_veh113" vType="veh_passenger" speedFactor="1.01" vaporized=""/>
    <tripinfo id="veh162" depart="77.00" departLane="319392763#5_0" departPos="4.11" departSpeed="0.00" departDelay="0.26" arrival="126.00" arrivalLane="360299046#1_0" arrivalPos="5.68" arrivalSpeed="13.03" duration="49.00" routeLength="640.94" waitingTime="0.00" waitingCount="0" stopTime="0.00" timeLoss="12.82" rerouteNo="1" devices="tripinfo_veh162 routing_veh162" vType="veh_passenger" speedFactor="0.99" vaporized=""/>
    <tripinfo id="veh66" depart="32.00" departLane="360823215_0" departPos="5.10" departSpeed="0.00" departDelay="0.74" arrival="128.00" arrivalLane="822386561#0_0" arrivalPos="12.09" arrivalSpeed="9.80" duration="96.00" routeLength="1146.31" waitingTime="0.00" waitingCount="0" stopTime="0.00" timeLoss="24.77" rerouteNo="1" devices="tripinfo_veh66 routing_veh66" vType="veh_passenger" speedFactor="0.91" vaporized=""/>
    <tripinfo id="veh40" depart="19.00" departLane="230594205_0" departPos="5.10" departSpeed="0.00" departDelay="0.05" arrival="129.00" arrivalLane="-316747674_0" arrivalPos="15.81" arrivalSpeed="13.68" duration="110.00" routeLength="1674.08" waitingTime="0.00" waitingCount="0" stopTime="0.00" timeLoss="29.36" rerouteNo="1" devices="tripinfo_veh40 routing_veh40" vType="veh_passenger" speedFactor="1.03" vaporized=""/>
    <tripinfo id="veh170" depart="81.00" departLane="-326154259#0_0" departPos="5.10" departSpeed="0.00" departDelay="0.47" arrival="131.00" arrivalLane="360299047#2_0" arrivalPos="3.35" arrivalSpeed="8.34" duration="50.00" routeLength="648.12" waitingTime="0.00" waitingCount="0" stopTime="0.00" timeLoss="17.98" rerouteNo="1" devices="tripinfo_veh170 routing_veh170" vType="veh_passenger" speedFactor="1.09" vaporized=""/>
    <tripinfo id="veh172" depart="82.00" departLane="28121214#37_0" departPos="5.10" departSpeed="0.00" departDelay="0.52" arrival="131.00" arrivalLane="-822573612_0" arrivalPos="35.48" arrivalSpeed="11.51" duration="49.00" routeLength="537.95" waitingTime="0.00" waitingCount="0" stopTime="0.00" timeLoss="13.52" rerouteNo="1" devices="tripinfo_veh172 routing_veh172" vType="veh_passenger" speedFactor="0.89" vaporized=""/>
    <tripinfo id="veh86" depart="41.00" departLane="319512089_0" departPos="5.10" departSpeed="0.00" departDelay="0.26" arrival="139.00" arrivalLane="-28419868#0_0" arrivalPos="1.15" arrivalSpeed="13.35" duration="98.00" routeLength="1434.06" waitingTime="0.00" waitingCount="0" stopTime="0.00" timeLoss="28.74" rerouteNo="1" devices="tripinfo_veh86 routing_veh86" vType="veh_passenger" speedFactor="1.00" vaporized=""/>
    <tripinfo id="veh39" depart="19.00" departLane="-315993717#3_0" departPos="5.10" departSpeed="0.00" departDelay="0.53" arrival="141.00" arrivalLane="-315427805_0" arrivalPos="223.65" arrivalSpeed="11.23" duration="122.00" routeLength="1322.42" waitingTime="0.00" waitingCount="0" stopTime="0.00" timeLoss="14.26" rerouteNo="1" devices="tripinfo_veh39 routing_veh39" vType="veh_passenger" speedFactor="0.90" vaporized=""/>
    <tripinfo id="veh24" depart="12.00" departLane="28119685#5_1" departPos="5.10" departSpeed="0.00" departDelay="0.63" arrival="142.00" arrivalLane="-361363847_0" arrivalPos="71.02" arrivalSpeed="10.26" duration="130.00" routeLength="1621.78" waitingTime="0.00" waitingCount="0" stopTime="0.00" timeLoss="21.70" rerouteNo="1" devices="tripinfo_veh24 routing_veh24" vType="veh_passenger" speedFactor="0.83" vaporized=""/>
    <tripinfo id="veh7" depart="4.00" departLane="28245900#13_0" departPos="5.10" departSpeed="0.00" departDelay="0.68" arrival="149.00" arrivalLane="204014459#0_0" arrivalPos="267.95" arrivalSpeed="11.46" duration="145.00" routeLength="1928.74" waitingTime="3.00" waitingCount="1" stopTime="0.00" timeLoss="32.81" rerouteNo="1" devices="tripinfo_veh7 routing_veh7" vType="veh_passenger" speedFactor="0.89" vaporized=""/>
    <tripinfo id="veh135" depart="64.00" departLane="28275806#11_0" departPos="5.10" departSpeed="0.00" departDelay="0.05" arrival="150.00" arrivalLane="729016166#4_0" arrivalPos="143.76" arrivalSpeed="24.66" duration="86.00" routeLength="862.23" waitingTime="15.00" waitingCount="1" stopTime="0.00" timeLoss="41.42" rerouteNo="1" devices="tripinfo_veh135 routing_veh135" vType="veh_passenger" speedFactor="1.01" vaporized=""/>
    <tripinfo id="veh98" depart="47.00" departLane="947088785#2_0" departPos="5.10" departSpeed="0.00" departDelay="0.58" arrival="152.00" arrivalLane="326154259#3_0" arrivalPos="0.22" arrivalSpeed="15.15" duration="105.00" routeLength="1559.80" waitingTime="0.00" waitingCount="0" stopTime="0.00" timeLoss="31.69" rerouteNo="1" devices="tripinfo_veh98 routing_veh98" vType="veh_passenger" speedFactor="1.12" vaporized=""/>
    <tripinfo id="veh9" depart="5.00" departLane="319658469#0_0" departPos="5.10" departSpeed="0.00" departDelay="0.74" arrival="153.00" arrivalLane="-1133370035#1_0" arrivalPos="127.72" arrivalSpeed="18.98" duration="148.00" routeLength="2092.46" waitingTime="0.00" waitingCount="0" stopTime="0.00" timeLoss="28.07" rerouteNo="1" devices="tripinfo_veh9 routing_veh9" vType="veh_passenger" speedFactor="0.86" vaporized=""/>
    <tripinfo id="veh207" depart="99.00" departLane="358304913#5_0" departPos="5.10" departSpeed="0.00" departDelay="0.94" arrival="156.00" arrivalLane="-229549752#1_0" arrivalPos="37.98" arrivalSpeed="12.68" duration="57.00" routeLength="652.28" waitingTime="2.00" waitingCount="1" stopTime="0.00" timeLoss="19.22" rerouteNo="1" devices="tripinfo_veh207 routing_veh207" vType="veh_passenger" speedFactor="0.97" vaporized=""/>
    <tripinfo id="veh217" depart="103.00" departLane="28275826#7_0" departPos="5.10" departSpeed="0.00" departDelay="0.21" arrival="156.00" arrivalLane="85564969#4_0" arrivalPos="13.49" arrivalSpeed="29.16" duration="53.00" routeLength="788.58" waitingTime="0.00" waitingCount="0" stopTime="0.00" timeLoss="19.61" rerouteNo="1" devices="tripinfo_veh217 routing_veh217" vType="veh_passenger" speedFactor="1.07" vaporized=""/>
    <tripinfo id="veh91" depart="44.00" departLane="-727863538#0_0" departPos="5.10" departSpeed="0.00" departDelay="0.89" arrival="161.00" arrivalLane="-360299046#1_0" arrivalPos="5.68" arrivalSpeed="7.07" duration="117.00" routeLength="1516.29" waitingTime="0.00" waitingCount="0" stopTime="0.00" timeLoss="29.90" rerouteNo="1" devices="tripinfo_veh91 routing_veh91" vType="veh_passenger" speedFactor="0.89" vaporized=""/>
    <tripinfo id="veh146" depart="70.00" departLane="-826017018#0_0" departPos="5.10" departSpeed="0.00" departDelay="0.84" arrival="162.00" arrivalLane="-1194676642#0_0" arrivalPos="14.79" arrivalSpeed="11.72" duration="92.00" routeLength="1321.50" waitingTime="0.00" waitingCount="0" stopTime="0.00" timeLoss="24.20" rerouteNo="1" devices="tripinfo_veh146 routing_veh146" vType="veh_passenger" speedFactor="0.89" vaporized=""/>
    <tripinfo id="veh46" depart="22.00" departLane="319392726#8_0" departPos="5.10" departSpeed="0.00" departDelay="0.21" arrival="164.00" arrivalLane="-826361122#0_0" arrivalPos="36.53" arrivalSpeed="13.52" duration="142.00" routeLength="1979.50" waitingTime="1.00" waitingCount="1" stopTime="0.00" timeLoss="33.32" rerouteNo="1" devices="tripinfo_veh46 routing_veh46" vType="veh_passenger" speedFactor="1.00" vaporized=""/>
    <tripinfo id="veh134" depart="64.00" departLane="319662785#0_0" departPos="5.10" departSpeed="0.00" departDelay="0.52" arrival="166.00" arrivalLane="-319662515_0" arrivalPos="98.74" arrivalSpeed="16.67" duration="102.00" routeLength="1250.11" waitingTime="0.00" waitingCount="0" stopTime="0.00" timeLoss="25.15" rerouteNo="1" devices="tripinfo_veh134 routing_veh134" vType="veh_passenger" speedFactor="1.23" vaporized=""/>
    <tripinfo id="veh116" depart="55.00" departLane="-301611296#1_0" departPos="5.10" departSpeed="0.00" departDelay="0.05" arrival="168.00" arrivalLane="-232295578#1_0" arrivalPos="38.41" arrivalSpeed="13.32" duration="113.00" routeLength="1403.93" waitingTime="0.00" waitingCount="0" stopTime="0.00" timeLoss="23.26" rerouteNo="1" devices="tripinfo_veh116 routing_veh116" vType="veh_passenger" speedFactor="1.18" vaporized=""/>
    <tripinfo id="veh17" depart="9.00" departLane="-361363848_0" departPos="5.10" departSpeed="0.00" departDelay="0.95" arrival="171.00" arrivalLane="229492762#5_0" arrivalPos="41.18" arrivalSpeed="12.33" duration="162.00" routeLength="1992.81" waitingTime="16.00" waitingCount="1" stopTime="0.00" timeLoss="47.44" rerouteNo="1" devices="tripinfo_veh17 routing_veh17" vType="veh_passenger" speedFactor="0.94" vaporized=""/>
    <tripinfo id="veh157" depart="75.00" departLane="-267226905#1_0" departPos="5.10" departSpeed="0.00" departDelay="0.63" arrival="171.00" arrivalLane="727863538#0_0" arrivalPos="54.66" arrivalSpeed="18.19" duration="96.00" routeLength="1773.86" waitingTime="0.00" waitingCount="0" stopTime="0.00" timeLoss="25.27" rerouteNo="1" devices="tripinfo_veh157 routing_veh157" vType="veh_passenger" speedFactor="1.08" vaporized=""/>
    <tripinfo id="veh88" depart="42.00" departLane="-824768481_0" departPos="5.10" departSpeed="0.00" departDelay="0.31" arrival="173.00" arrivalLane="1202694966#2_0" arrivalPos="17.52" arrivalSpeed="13.03" duration="131.00" routeLength="1410.38" waitingTime="0.00" waitingCount="0" stopTime="0.00" timeLoss="28.62" rerouteNo="1" devices="tripinfo_veh88 routing_veh88" vType="veh_passenger" speedFactor="1.01" vaporized=""/>
    <tripinfo id="veh121" depart="58.00" departLane="-28419858#1_0" departPos="5.10" departSpeed="0.00" departDelay="0.68" arrival="173.00" arrivalLane="295839766_0" arrivalPos="11.47" arrivalSpeed="8.88" duration="115.00" routeLength="1102.39" waitingTime="0.00" waitingCount="0" stopTime="0.00" timeLoss="36.86" rerouteNo="1" devices="tripinfo_veh121 routing_veh121" vType="veh_passenger" speedFactor="1.10" vaporized=""/>
    <tripinfo id="veh27" depart="13.00" departLane="28245882#13_0" departPos="5.10" departSpeed="0.00" departDelay="0.21" arrival="174.00" arrivalLane="234376533#2_0" arrivalPos="11.55" arrivalSpeed="8.53" duration="161.00" routeLength="1893.53" waitingTime="12.00" waitingCount="2" stopTime="0.00" timeLoss="61.44" rerouteNo="1" devices="tripinfo_veh27 routing_veh27" vType="veh_passenger" speedFactor="0.95" vaporized=""/>
    <tripinfo id="veh225" depart="107.00" departLane="316353905#3_1" departPos="5.10" departSpeed="0.00" departDelay="0.42" arrival="174.00" arrivalLane="168752556#0_0" arrivalPos="51.51" arrivalSpeed="12.75" duration="67.00" routeLength="1055.86" waitingTime="0.00" waitingCount="0" stopTime="0.00" timeLoss="19.07" rerouteNo="1" devices="tripinfo_veh225 routing_veh225" vType="veh_passenger" speedFactor="0.97" vaporized=""/>
    <tripinfo id="veh3" depart="2.00" departLane="369583189#1_0" departPos="5.10" departSpeed="0.00" departDelay="0.58" arrival="176.00" arrivalLane="-230599328_0" arrivalPos="46.65" arrivalSpeed="13.91" duration="174.00" routeLength="3141.14" waitingTime="0.00" waitingCount="0" stopTime="0.00" timeLoss="40.80" rerouteNo="1" devices="tripinfo_veh3 routing_veh3" vType="veh_passenger" speedFactor="1.08" vaporized=""/>
    <tripinfo id="veh125" depart="60.00" departLane="-193614218#7_0" departPos="5.10" departSpeed="0.00" departDelay="0.79" arrival="176.00" arrivalLane="1190308456_0" arrivalPos="0.20" arrivalSpeed="6.80" duration="116.00" routeLength="1924.74" waitingTime="0.00" waitingCount="0" stopTime="0.00" timeLoss="20.19" rerouteNo="1" devices="tripinfo_veh125 routing_veh125" vType="veh_passenger" speedFactor="1.15" vaporized=""/>
    <tripinfo id="veh201" depart="96.00" departLane="-229549751#0_0" departPos="5.10" departSpeed="0.00" departDelay="0.78" arrival="177.00" arrivalLane="140350237#5_0" arrivalPos="28.83" arrivalSpeed="11.73" duration="81.00" routeLength="850.16" waitingTime="1.00" waitingCount="1" stopTime="0.00" timeLoss="22.85" rerouteNo="1" devices="tripinfo_veh201 routing_veh201" vType="veh_passenger" speedFactor="0.87" vaporized=""/>
    <tripinfo id="veh60" depart="29.00" departLane="316169375#1_0" departPos="5.10" departSpeed="0.00" departDelay="0.58" arrival="178.00" arrivalLane="193614218#0_0" arrivalPos="81.67" arrivalSpeed="14.04" duration="149.00" routeLength="2551.65" waitingTime="0.00" waitingCount="0" stopTime="0.00" timeLoss="36.24" rerouteNo="1" devices="tripinfo_veh60 routing_veh60" vType="veh_passenger" speedFactor="1.08" vaporized=""/>
    <tripinfo id="veh35" depart="17.00" departLane="-28420016#3_0" departPos="5.10" departSpeed="0.00" departDelay="0.42" arrival="186.00" arrivalLane="822205849#2_0" arrivalPos="31.49" arrivalSpeed="13.23" duration="169.00" routeLength="2653.68" waitingTime="0.00" waitingCount="0" stopTime="0.00" timeLoss="52.66" rerouteNo="1" devices="tripinfo_veh35 routing_veh35" vType="veh_passenger" speedFactor="1.02" vaporized=""/>
    <tripinfo id="veh84" depart="40.00" departLane="729016168#0_0" departPos="5.10" departSpeed="0.00" departDelay="0.21" arrival="186.00" arrivalLane="230599349#10_0" arrivalPos="1.44" arrivalSpeed="9.08" duration="146.00" routeLength="2989.46" waitingTime="0.00" waitingCount="0" stopTime="0.00" timeLoss="38.02" rerouteNo="1" devices="tripinfo_veh84 routing_veh84" vType="veh_passenger" speedFactor="1.15" vaporized=""/>
    <tripinfo id="veh230" depart="109.00" departLane="28452286#6-AddedOffRampEdge_0" departPos="5.10" departSpeed="0.00" departDelay="0.05" arrival="187.00" arrivalLane="-193674412#8_0" arrivalPos="15.32" arrivalSpeed="7.77" duration="78.00" routeLength="1145.48" waitingTime="0.00" waitingCount="0" stopTime="0.00" timeLoss="24.22" rerouteNo="1" devices="tripinfo_veh230 routing_veh230" vType="veh_passenger" speedFactor="1.04" vaporized=""/>
    <tripinfo id="veh8" depart="4.00" departLane="-28439232#5_0" departPos="0.28" departSpeed="0.00" departDelay="0.21" arrival="188.00" arrivalLane="232197847#5_0" arrivalPos="98.85" arrivalSpeed="12.10" duration="184.00" routeLength="2812.51" waitingTime="0.00" waitingCount="0" stopTime="0.00" timeLoss="43.73" rerouteNo="1" devices="tripinfo_veh8 routing_veh8" vType="veh_passenger" speedFactor="0.94" vaporized=""/>
    <tripinfo id="veh87" depart="42.00" departLane="-230599282#0_0" departPos="5.10" departSpeed="0.00" departDelay="0.79" arrival="188.00" arrivalLane="-8285902#0_0" arrivalPos="10.32" arrivalSpeed="17.38" duration="146.00" routeLength="2072.00" waitingTime="1.00" waitingCount="1" stopTime="0.00" timeLoss="55.92" rerouteNo="1" devices="tripinfo_veh87 routing_veh87" vType="veh_passenger" speedFactor="1.04" vaporized=""/>
    <tripinfo id="veh145" depart="70.00" departLane="314269338#4_0" departPos="5.10" departSpeed="0.00" departDelay="1.31" arrival="188.00" arrivalLane="229492762#11_0" arrivalPos="122.98" arrivalSpeed="15.66" duration="118.00" routeLength="1668.55" waitingTime="0.00" waitingCount="0" stopTime="0.00" timeLoss="37.96" rerouteNo="1" devices="tripinfo_veh145 routing_veh145" vType="veh_passenger" speedFactor="1.14" vaporized=""/>
    <tripinfo id="veh161" depart="77.00" departLane="-326154285#1_0" departPos="5.10" departSpeed="0.00" departDelay="0.73" arrival="189.00" arrivalLane="728025063#2_0" arrivalPos="26.85" arrivalSpeed="13.85" duration="112.00" routeLength="1832.58" waitingTime="0.00" waitingCount="0" stopTime="0.00" timeLoss="34.30" rerouteNo="1" devices="tripinfo_veh161 routing_veh161" vType="veh_passenger" speedFactor="1.08" vaporized=""/>
    <tripinfo id="veh76" depart="36.00" departLane="-826361130#0_0" departPos="5.10" departSpeed="0.00" departDelay="0.00" arrival="190.00" arrivalLane="151441963#2_2" arrivalPos="86.74" arrivalSpeed="28.46" duration="154.00" routeLength="3085.44" waitingTime="0.00" waitingCount="0" stopTime="0.00" timeLoss="30.15" rerouteNo="1" devices="tripinfo_veh76 routing_veh76" vType="veh_passenger" speedFactor="1.03" vaporized=""/>
    <tripinfo id="veh200" depart="95.00" departLane="319392747#1_0" departPos="5.10" departSpeed="0.00" departDelay="0.26" arrival="190.00" arrivalLane="-28245996#8_0" arrivalPos="25.16" arrivalSpeed="12.07" duration="95.00" routeLength="1479.78" waitingTime="0.00" waitingCount="0" stopTime="0.00" timeLoss="19.41" rerouteNo="1" devices="tripinfo_veh200 routing_veh200" vType="veh_passenger" speedFactor="0.95" vaporized=""/>
    <tripinfo id="veh106" depart="51.00" departLane="824766246#0_0" departPos="5.10" departSpeed="0.00" departDelay="0.79" arrival="191.00" arrivalLane="86258060#3_0" arrivalPos="16.05" arrivalSpeed="21.38" duration="140.00" routeLength="2563.99" waitingTime="0.00" waitingCount="0" stopTime="0.00" timeLoss="31.59" rerouteNo="1" devices="tripinfo_veh106 routing_veh106" vType="veh_passenger" speedFactor="1.01" vaporized=""/>
    <tripinfo id="veh176" depart="84.00" departLane="824859287_0" departPos="5.10" departSpeed="0.00" departDelay="0.63" arrival="193.00" arrivalLane="-316859939#0_0" arrivalPos="17.69" arrivalSpeed="14.33" duration="109.00" routeLength="1406.95" waitingTime="0.00" waitingCount="0" stopTime="0.00" timeLoss="26.31" rerouteNo="1" devices="tripinfo_veh176 routing_veh176" vType="veh_passenger" speedFactor="1.09" vaporized=""/>
    <tripinfo id="veh77" depart="37.00" departLane="-232197850#4_0" departPos="5.10" departSpeed="0.00" departDelay="0.52" arrival="194.00" arrivalLane="-309850375_0" arrivalPos="79.79" arrivalSpeed="12.75" duration="157.00" routeLength="2338.42" waitingTime="0.00" waitingCount="0" stopTime="0.00" timeLoss="31.42" rerouteNo="1" devices="tripinfo_veh77 routing_veh77" vType="veh_passenger" speedFactor="0.98" vaporized=""/>
    <tripinfo id="veh208" depart="99.00" departLane="-822574250#0_0" departPos="5.10" departSpeed="0.00" departDelay="0.47" arrival="195.00" arrivalLane="267226912_0" arrivalPos="59.43" arrivalSpeed="12.72" duration="96.00" routeLength="1382.46" waitingTime="0.00" waitingCount="0" stopTime="0.00" timeLoss="21.03" rerouteNo="1" devices="tripinfo_veh208 routing_veh208" vType="veh_passenger" speedFactor="0.96" vaporized=""/>
    <tripinfo id="veh59" depart="28.00" departLane="235210803#1_0" departPos="5.10" departSpeed="0.00" departDelay="0.05" arrival="198.00" arrivalLane="-28121214#8_0" arrivalPos="12.32" arrivalSpeed="20.47" duration="170.00" routeLength="2635.72" waitingTime="2.00" waitingCount="1" stopTime="0.00" timeLoss="49.26" rerouteNo="1" devices="tripinfo_veh59 routing_veh59" vType="veh_passenger" speedFactor="0.97" vaporized=""/>
    <tripinfo id="veh71" depart="34.00" departLane="-315993718#2_0" departPos="5.10" departSpeed="0.00" departDelay="0.37" arrival="198.00" arrivalLane="360314931#1_0" arrivalPos="45.37" arrivalSpeed="13.03" duration="164.00" routeLength="2438.64" waitingTime="0.00" waitingCount="0" stopTime="0.00" timeLoss="38.63" rerouteNo="1" devices="tripinfo_veh71 routing_veh71" vType="veh_passenger" speedFactor="0.97" vaporized=""/>
    <tripinfo id="veh204" depart="97.00" departLane="28413665#8_0" departPos="5.10" departSpeed="0.00" departDelay="0.36" arrival="199.00" arrivalLane="-309508217#2_0" arrivalPos="56.97" arrivalSpeed="14.74" duration="102.00" routeLength="1452.16" waitingTime="0.00" waitingCount="0" stopTime="0.00" timeLoss="23.91" rerouteNo="1" devices="tripinfo_veh204 routing_veh204" vType="veh_passenger" speedFactor="1.07" vaporized=""/>
    <tripinfo id="veh126" depart="60.00" departLane="86263898#4_0" departPos="5.10" departSpeed="0.00" departDelay="0.31" arrival="200.00" arrivalLane="86260506#0_0" arrivalPos="57.65" arrivalSpeed="13.74" duration="140.00" routeLength="2302.05" waitingTime="0.00" waitingCount="0" stopTime="0.00" timeLoss="23.76" rerouteNo="1" devices="tripinfo_veh126 routing_veh126" vType="veh_passenger" speedFactor="1.03" vaporized=""/>
    <tripinfo id="veh206" depart="98.00" departLane="-311851901#0_0" departPos="5.10" departSpeed="0.00" departDelay="0.42" arrival="200.00" arrivalLane="1215933578#0_0" arrivalPos="24.64" arrivalSpeed="11.55" duration="102.00" routeLength="1512.02" waitingTime="0.00" waitingCount="0" stopTime="0.00" timeLoss="27.80" rerouteNo="1" devices="tripinfo_veh206 routing_veh206" vType="veh_passenger" speedFactor="1.00" vaporized=""/>
    <tripinfo id="veh100" depart="48.00" departLane="358302725#0_1" departPos="5.10" departSpeed="25.85" departDelay="0.63" arrival="201.00" arrivalLane="-28245975#0_0" arrivalPos="62.89" arrivalSpeed="13.96" duration="153.00" routeLength="2450.08" waitingTime="0.00" waitingCount="0" stopTime="0.00" timeLoss="46.91" rerouteNo="1" devices="tripinfo_veh100 routing_veh100" vType="veh_passenger" speedFactor="1.06" vaporized=""/>
    <tripinfo id="veh85" depart="41.00" departLane="1202287818_0" departPos="1.02" departSpeed="0.00" departDelay="0.73" arrival="204.00" arrivalLane="317375252#1_0" arrivalPos="78.07" arrivalSpeed="13.22" duration="163.00" routeLength="2062.07" waitingTime="0.00" waitingCount="0" stopTime="0.00" timeLoss="31.61" rerouteNo="1" devices="tripinfo_veh85 routing_veh85" vType="veh_passenger" speedFactor="0.98" vaporized=""/>
    <tripinfo id="veh52" depart="25.00" departLane="-315993729#0_0" departPos="5.10" departSpeed="0.00" departDelay="0.37" arrival="205.00" arrivalLane="28121208#32_0" arrivalPos="4.31" arrivalSpeed="8.06" duration="180.00" routeLength="3053.69" waitingTime="0.00" waitingCount="0" stopTime="0.00" timeLoss="37.94" rerouteNo="1" devices="tripinfo_veh52 routing_veh52" vType="veh_passenger" speedFactor="1.02" vaporized=""/>
    <tripinfo id="veh133" depart="63.00" departLane="28245964#1_0" departPos="5.10" departSpeed="0.00" departDelay="0.00" arrival="205.00" arrivalLane="-1189305005#3_0" arrivalPos="136.54" arrivalSpeed="14.25" duration="142.00" routeLength="2047.14" waitingTime="2.00" waitingCount="1" stopTime="0.00" timeLoss="37.70" rerouteNo="1" devices="tripinfo_veh133 routing_veh133" vType="veh_passenger" speedFactor="1.04" vaporized=""/>
    <tripinfo id="veh139" depart="66.00" departLane="302534535_0" departPos="5.10" departSpeed="0.00" departDelay="0.15" arrival="208.00" arrivalLane="-28439197#10_0" arrivalPos="6.26" arrivalSpeed="12.19" duration="142.00" routeLength="2514.81" waitingTime="0.00" waitingCount="0" stopTime="0.00" timeLoss="33.84" rerouteNo="1" devices="tripinfo_veh139 routing_veh139" vType="veh_passenger" speedFactor="0.95" vaporized=""/>
    <tripinfo id="veh270" depart="128.00" departLane="-230599349#7_0" departPos="2.25" departSpeed="0.00" departDelay="0.10" arrival="208.00" arrivalLane="316524162#8_0" arrivalPos="49.62" arrivalSpeed="21.22" duration="80.00" routeLength="1170.96" waitingTime="0.00" waitingCount="0" stopTime="0.00" timeLoss="21.82" rerouteNo="1" devices="tripinfo_veh270 routing_veh270" vType="veh_passenger" speedFactor="0.97" vaporized=""/>
    <tripinfo id="veh89" depart="43.00" departLane="312018294#6_0" departPos="0.20" departSpeed="0.00" departDelay="0.84" arrival="210.00" arrivalLane="28413659#0_0" arrivalPos="30.75" arrivalSpeed="13.23" duration="167.00" routeLength="2661.64" waitingTime="0.00" waitingCount="0" stopTime="0.00" timeLoss="34.46" rerouteNo="1" devices="tripinfo_veh89 routing_veh89" vType="veh_passenger" speedFactor="1.02" vaporized=""/>
    <tripinfo id="veh238" depart="113.00" departLane="360279144#1_0" departPos="5.10" departSpeed="0.00" departDelay="0.26" arrival="210.00" arrivalLane="824731617#2_0" arrivalPos="22.35" arrivalSpeed="17.34" duration="97.00" routeLength="1488.88" waitingTime="0.00" waitingCount="0" stopTime="0.00" timeLoss="35.57" rerouteNo="1" devices="tripinfo_veh238 routing_veh238" vType="veh_passenger" speedFactor="1.10" vaporized=""/>